<?xml version="1.0" encoding="UTF-8" standalone="no" ?>
<VTKFile byte_order="LittleEndian" type="UnstructuredGrid" version="0.1">

  <UnstructuredGrid>
    <Piece NumberOfCells="0" NumberOfPoints="5869">
      <PointData>
        <DataArray Name="mass" NumberOfComponents="1" format="ascii" type="Float32">1 1 1 1 1 1 1 1 1 1 1 1 1 1 1 1 1 1 1 1 1 1 1 1 1 1 1 1 1 1 1 1 1 1 1 1 1 1 1 1 1 1 1 1 1 1 1 1 1 1 1 1 1 1 1 1 1 1 1 1 1 1 1 1 1 1 1 1 1 1 1 1 1 1 1 1 1 1 1 1 1 1 1 1 1 1 1 1 1 1 1 1 1 1 1 1 1 1 1 1 1 1 1 1 1 1 1 1 1 1 1 1 1 1 1 1 1 1 1 1 1 1 1 1 1 1 1 1 1 1 1 1 1 1 1 1 1 1 1 1 1 1 1 1 1 1 1 1 1 1 1 1 1 1 1 1 1 1 1 1 1 1 1 1 1 1 1 1 1 1 1 1 1 1 1 1 1 1 1 1 1 1 1 1 1 1 1 1 1 1 1 1 1 1 1 1 1 1 1 1 1 1 1 1 1 1 1 1 1 1 1 1 1 1 1 1 1 1 1 1 1 1 1 1 1 1 1 1 1 1 1 1 1 1 1 1 1 1 1 1 1 1 1 1 1 1 1 1 1 1 1 1 1 1 1 1 1 1 1 1 1 1 1 1 1 1 1 1 1 1 1 1 1 1 1 1 1 1 1 1 1 1 1 1 1 1 1 1 1 1 1 1 1 1 1 1 1 1 1 1 1 1 1 1 1 1 1 1 1 1 1 1 1 1 1 1 1 1 1 1 1 1 1 1 1 1 1 1 1 1 1 1 1 1 1 1 1 1 1 1 1 1 1 1 1 1 1 1 1 1 1 1 1 1 1 1 1 1 1 1 1 1 1 1 1 1 1 1 1 1 1 1 1 1 1 1 1 1 1 1 1 1 1 1 1 1 1 1 1 1 1 1 1 1 1 1 1 1 1 1 1 1 1 1 1 1 1 1 1 1 1 1 1 1 1 1 1 1 1 1 1 1 1 1 1 1 1 1 1 1 1 1 1 1 1 1 1 1 1 1 1 1 1 1 1 1 1 1 1 1 1 1 1 1 1 1 1 1 1 1 1 1 1 1 1 1 1 1 1 1 1 1 1 1 1 1 1 1 1 1 1 1 1 1 1 1 1 1 1 1 1 1 1 1 1 1 1 1 1 1 1 1 1 1 1 1 1 1 1 1 1 1 1 1 1 1 1 1 1 1 1 1 1 1 1 1 1 1 1 1 1 1 1 1 1 1 1 1 1 1 1 1 1 1 1 1 1 1 1 1 1 1 1 1 1 1 1 1 1 1 1 1 1 1 1 1 1 1 1 1 1 1 1 1 1 1 1 1 1 1 1 1 1 1 1 1 1 1 1 1 1 1 1 1 1 1 1 1 1 1 1 1 1 1 1 1 1 1 1 1 1 1 1 1 1 1 1 1 1 1 1 1 1 1 1 1 1 1 1 1 1 1 1 1 1 1 1 1 1 1 1 1 1 1 1 1 1 1 1 1 1 1 1 1 1 1 1 1 1 1 1 1 1 1 1 1 1 1 1 1 1 1 1 1 1 1 1 1 1 1 1 1 1 1 1 1 1 1 1 1 1 1 1 1 1 1 1 1 1 1 1 1 1 1 1 1 1 1 1 1 1 1 1 1 1 1 1 1 1 1 1 1 1 1 1 1 1 1 1 1 1 1 1 1 1 1 1 1 1 1 1 1 1 1 1 1 1 1 1 1 1 1 1 1 1 1 1 1 1 1 1 1 1 1 1 1 1 1 1 1 1 1 1 1 1 1 1 1 1 1 1 1 1 1 1 1 1 1 1 1 1 1 1 1 1 1 1 1 1 1 1 1 1 1 1 1 1 1 1 1 1 1 1 1 1 1 1 1 1 1 1 1 1 1 1 1 1 1 1 1 1 1 1 1 1 1 1 1 1 1 1 1 1 1 1 1 1 1 1 1 1 1 1 1 1 1 1 1 1 1 1 1 1 1 1 1 1 1 1 1 1 1 1 1 1 1 1 1 1 1 1 1 1 1 1 1 1 1 1 1 1 1 1 1 1 1 1 1 1 1 1 1 1 1 1 1 1 1 1 1 1 1 1 1 1 1 1 1 1 1 1 1 1 1 1 1 1 1 1 1 1 1 1 1 1 1 1 1 1 1 1 1 1 1 1 1 1 1 1 1 1 1 1 1 1 1 1 1 1 1 1 1 1 1 1 1 1 1 1 1 1 1 1 1 1 1 1 1 1 1 1 1 1 1 1 1 1 1 1 1 1 1 1 1 1 1 1 1 1 1 1 1 1 1 1 1 1 1 1 1 1 1 1 1 1 1 1 1 1 1 1 1 1 1 1 1 1 1 1 1 1 1 1 1 1 1 1 1 1 1 1 1 1 1 1 1 1 1 1 1 1 1 1 1 1 1 1 1 1 1 1 1 1 1 1 1 1 1 1 1 1 1 1 1 1 1 1 1 1 1 1 1 1 1 1 1 1 1 1 1 1 1 1 1 1 1 1 1 1 1 1 1 1 1 1 1 1 1 1 1 1 1 1 1 1 1 1 1 1 1 1 1 1 1 1 1 1 1 1 1 1 1 1 1 1 1 1 1 1 1 1 1 1 1 1 1 1 1 1 1 1 1 1 1 1 1 1 1 1 1 1 1 1 1 1 1 1 1 1 1 1 1 1 1 1 1 1 1 1 1 1 1 1 1 1 1 1 1 1 1 1 1 1 1 1 1 1 1 1 1 1 1 1 1 1 1 1 1 1 1 1 1 1 1 1 1 1 1 1 1 1 1 1 1 1 1 1 1 1 1 1 1 1 1 1 1 1 1 1 1 1 1 1 1 1 1 1 1 1 1 1 1 1 1 1 1 1 1 1 1 1 1 1 1 1 1 1 1 1 1 1 1 1 1 1 1 1 1 1 1 1 1 1 1 1 1 1 1 1 1 1 1 1 1 1 1 1 1 1 1 1 1 1 1 1 1 1 1 1 1 1 1 1 1 1 1 1 1 1 1 1 1 1 1 1 1 1 1 1 1 1 1 1 1 1 1 1 1 1 1 1 1 1 1 1 1 1 1 1 1 1 1 1 1 1 1 1 1 1 1 1 1 1 1 1 1 1 1 1 1 1 1 1 1 1 1 1 1 1 1 1 1 1 1 1 1 1 1 1 1 1 1 1 1 1 1 1 1 1 1 1 1 1 1 1 1 1 1 1 1 1 1 1 1 1 1 1 1 1 1 1 1 1 1 1 1 1 1 1 1 1 1 1 1 1 1 1 1 1 1 1 1 1 1 1 1 1 1 1 1 1 1 1 1 1 1 1 1 1 1 1 1 1 1 1 1 1 1 1 1 1 1 1 1 1 1 1 1 1 1 1 1 1 1 1 1 1 1 1 1 1 1 1 1 1 1 1 1 1 1 1 1 1 1 1 1 1 1 1 1 1 1 1 1 1 1 1 1 1 1 1 1 1 1 1 1 1 1 1 1 1 1 1 1 1 1 1 1 1 1 1 1 1 1 1 1 1 1 1 1 1 1 1 1 1 1 1 1 1 1 1 1 1 1 1 1 1 1 1 1 1 1 1 1 1 1 1 1 1 1 1 1 1 1 1 1 1 1 1 1 1 1 1 1 1 1 1 1 1 1 1 1 1 1 1 1 1 1 1 1 1 1 1 1 1 1 1 1 1 1 1 1 1 1 1 1 1 1 1 1 1 1 1 1 1 1 1 1 1 1 1 1 1 1 1 1 1 1 1 1 1 1 1 1 1 1 1 1 1 1 1 1 1 1 1 1 1 1 1 1 1 1 1 1 1 1 1 1 1 1 1 1 1 1 1 1 1 1 1 1 1 1 1 1 1 1 1 1 1 1 1 1 1 1 1 1 1 1 1 1 1 1 1 1 1 1 1 1 1 1 1 1 1 1 1 1 1 1 1 1 1 1 1 1 1 1 1 1 1 1 1 1 1 1 1 1 1 1 1 1 1 1 1 1 1 1 1 1 1 1 1 1 1 1 1 1 1 1 1 1 1 1 1 1 1 1 1 1 1 1 1 1 1 1 1 1 1 1 1 1 1 1 1 1 1 1 1 1 1 1 1 1 1 1 1 1 1 1 1 1 1 1 1 1 1 1 1 1 1 1 1 1 1 1 1 1 1 1 1 1 1 1 1 1 1 1 1 1 1 1 1 1 1 1 1 1 1 1 1 1 1 1 1 1 1 1 1 1 1 1 1 1 1 1 1 1 1 1 1 1 1 1 1 1 1 1 1 1 1 1 1 1 1 1 1 1 1 1 1 1 1 1 1 1 1 1 1 1 1 1 1 1 1 1 1 1 1 1 1 1 1 1 1 1 1 1 1 1 1 1 1 1 1 1 1 1 1 1 1 1 1 1 1 1 1 1 1 1 1 1 1 1 1 1 1 1 1 1 1 1 1 1 1 1 1 1 1 1 1 1 1 1 1 1 1 1 1 1 1 1 1 1 1 1 1 1 1 1 1 1 1 1 1 1 1 1 1 1 1 1 1 1 1 1 1 1 1 1 1 1 1 1 1 1 1 1 1 1 1 1 1 1 1 1 1 1 1 1 1 1 1 1 1 1 1 1 1 1 1 1 1 1 1 1 1 1 1 1 1 1 1 1 1 1 1 1 1 1 1 1 1 1 1 1 1 1 1 1 1 1 1 1 1 1 1 1 1 1 1 1 1 1 1 1 1 1 1 1 1 1 1 1 1 1 1 1 1 1 1 1 1 1 1 1 1 1 1 1 1 1 1 1 1 1 1 1 1 1 1 1 1 1 1 1 1 1 1 1 1 1 1 1 1 1 1 1 1 1 1 1 1 1 1 1 1 1 1 1 1 1 1 1 1 1 1 1 1 1 1 1 1 1 1 1 1 1 1 1 1 1 1 1 1 1 1 1 1 1 1 1 1 1 1 1 1 1 1 1 1 1 1 1 1 1 1 1 1 1 1 1 1 1 1 1 1 1 1 1 1 1 1 1 1 1 1 1 1 1 1 1 1 1 1 1 1 1 1 1 1 1 1 1 1 1 1 1 1 1 1 1 1 1 1 1 1 1 1 1 1 1 1 1 1 1 1 1 1 1 1 1 1 1 1 1 1 1 1 1 1 1 1 1 1 1 1 1 1 1 1 1 1 1 1 1 1 1 1 1 1 1 1 1 1 1 1 1 1 1 1 1 1 1 1 1 1 1 1 1 1 1 1 1 1 1 1 1 1 1 1 1 1 1 1 1 1 1 1 1 1 1 1 1 1 1 1 1 1 1 1 1 1 1 1 1 1 1 1 1 1 1 1 1 1 1 1 1 1 1 1 1 1 1 1 1 1 1 1 1 1 1 1 1 1 1 1 1 1 1 1 1 1 1 1 1 1 1 1 1 1 1 1 1 1 1 1 1 1 1 1 1 1 1 1 1 1 1 1 1 1 1 1 1 1 1 1 1 1 1 1 1 1 1 1 1 1 1 1 1 1 1 1 1 1 1 1 1 1 1 1 1 1 1 1 1 1 1 1 1 1 1 1 1 1 1 1 1 1 1 1 1 1 1 1 1 1 1 1 1 1 1 1 1 1 1 1 1 1 1 1 1 1 1 1 1 1 1 1 1 1 1 1 1 1 1 1 1 1 1 1 1 1 1 1 1 1 1 1 1 1 1 1 1 1 1 1 1 1 1 1 1 1 1 1 1 1 1 1 1 1 1 1 1 1 1 1 1 1 1 1 1 1 1 1 1 1 1 1 1 1 1 1 1 1 1 1 1 1 1 1 1 1 1 1 1 1 1 1 1 1 1 1 1 1 1 1 1 1 1 1 1 1 1 1 1 1 1 1 1 1 1 1 1 1 1 1 1 1 1 1 1 1 1 1 1 1 1 1 1 1 1 1 1 1 1 1 1 1 1 1 1 1 1 1 1 1 1 1 1 1 1 1 1 1 1 1 1 1 1 1 1 1 1 1 1 1 1 1 1 1 1 1 1 1 1 1 1 1 1 1 1 1 1 1 1 1 1 1 1 1 1 1 1 1 1 1 1 1 1 1 1 1 1 1 1 1 1 1 1 1 1 1 1 1 1 1 1 1 1 1 1 1 1 1 1 1 1 1 1 1 1 1 1 1 1 1 1 1 1 1 1 1 1 1 1 1 1 1 1 1 1 1 1 1 1 1 1 1 1 1 1 1 1 1 1 1 1 1 1 1 1 1 1 1 1 1 1 1 1 1 1 1 1 1 1 1 1 1 1 1 1 1 1 1 1 1 1 1 1 1 1 1 1 1 1 1 1 1 1 1 1 1 1 1 1 1 1 1 1 1 1 1 1 1 1 1 1 1 1 1 1 1 1 1 1 1 1 1 1 1 1 1 1 1 1 1 1 1 1 1 1 1 1 1 1 1 1 1 1 1 1 1 1 1 1 1 1 1 1 1 1 1 1 1 1 1 1 1 1 1 1 1 1 1 1 1 1 1 1 1 1 1 1 1 1 1 1 1 1 1 1 1 1 1 1 1 1 1 1 1 1 1 1 1 1 1 1 1 1 1 1 1 1 1 1 1 1 1 1 1 1 1 1 1 1 1 1 1 1 1 1 1 1 1 1 1 1 1 1 1 1 1 1 1 1 1 1 1 1 1 1 1 1 1 1 1 1 1 1 1 1 1 1 1 1 1 1 1 1 1 1 1 1 1 1 1 1 1 1 1 1 1 1 1 1 1 1 1 1 1 1 1 1 1 1 1 1 1 1 1 1 1 1 1 1 1 1 1 1 1 1 1 1 1 1 1 1 1 1 1 1 1 1 1 1 1 1 1 1 1 1 1 1 1 1 1 1 1 1 1 1 1 1 1 1 1 1 1 1 1 1 1 1 1 1 1 1 1 1 1 1 1 1 1 1 1 1 1 1 1 1 1 1 1 1 1 1 1 1 1 1 1 1 1 1 1 1 1 1 1 1 1 1 1 1 1 1 1 1 1 1 1 1 1 1 1 1 1 1 1 1 1 1 1 1 1 1 1 1 1 1 1 1 1 1 1 1 1 1 1 1 1 1 1 1 1 1 1 1 1 1 1 1 1 1 1 1 1 1 1 1 1 1 1 1 1 1 1 1 1 1 1 1 1 1 1 1 1 1 1 1 1 1 1 1 1 1 1 1 1 1 1 1 1 1 1 1 1 1 1 1 1 1 1 1 1 1 1 1 1 1 1 1 1 1 1 1 1 1 1 1 1 1 1 1 1 1 1 1 1 1 1 1 1 1 1 1 1 1 1 1 1 1 1 1 1 1 1 1 1 1 1 1 1 1 1 1 1 1 1 1 1 1 1 1 1 1 1 1 1 1 1 1 1 1 1 1 1 1 1 1 1 1 1 1 1 1 1 1 1 1 1 1 1 1 1 1 1 1 1 1 1 1 1 1 1 1 1 1 1 1 1 1 1 1 1 1 1 1 1 1 1 1 1 1 1 1 1 1 1 1 1 1 1 1 1 1 1 1 1 1 1 1 1 1 1 1 1 1 1 1 1 1 1 1 1 1 1 1 1 1 1 1 1 1 1 1 1 1 1 1 1 1 1 1 1 1 1 1 1 1 1 1 1 1 1 1 1 1 1 1 1 1 1 1 1 1 1 1 1 1 1 1 1 1 1 1 1 1 1 1 1 1 1 1 1 1 1 1 1 1 1 1 1 1 1 1 1 1 1 1 1 1 1 1 1 1 1 1 1 1 1 1 1 1 1 1 1 1 1 1 1 1 1 1 1 1 1 1 1 1 1 1 1 1 1 1 1 1 1 1 1 1 1 1 1 1 1 1 1 1 1 1 1 1 1 1 1 1 1 1 1 1 1 1 1 1 1 1 1 1 1 1 1 1 1 1 1 1 1 1 1 1 1 1 1 1 1 1 1 1 1 1 1 1 1 1 1 1 1 1 1 1 1 1 1 1 1 1 1 1 1 1 1 1 1 1 1 1 1 1 1 1 1 1 1 1 1 1 1 1 1 1 1 1 1 1 1 1 1 1 1 1 1 1 1 1 1 1 1 1 1 1 1 1 1 1 1 1 1 1 1 1 1 1 1 1 1 1 1 1 1 1 1 1 1 1 1 1 1 1 1 1 1 1 1 1 1 1 1 1 1 1 1 1 1 1 1 1 1 1 1 1 1 1 1 1 1 1 1 1 1 1 1 1 1 1 1 1 1 1 1 1 1 1 1 1 1 1 1 1 1 1 1 1 1 1 1 1 1 1 1 1 1 1 1 1 1 1 1 1 1 1 1 1 1 1 1 1 1 1 1 1 1 1 1 1 1 1 1 1 1 1 1 1 1 1 1 1 1 1 1 1 1 1 1 1 1 1 1 1 1 1 1 1 1 1 1 1 1 1 1 1 1 1 1 1 1 1 1 1 1 1 1 1 1 1 1 1 1 1 1 1 1 1 1 1 1 1 1 1 1 1 1 1 1 1 1 1 1 1 1 1 1 1 1 1 1 1 1 1 1 1 1 1 1 1 1 1 1 1 1 1 1 1 1 1 1 1 1 1 1 1 1 1 1 1 1 1 1 1 1 1 1 1 1 1 1 1 1 1 1 1 1 1 1 1 1 1 1 1 1 1 1 1 1 1 1 1 1 1 1 1 1 1 1 1 1 1 1 1 1 1 1 1 1 1 1 1 1 1 1 1 1 1 1 1 1 1 1 1 1 1 1 1 1 1 1 1 1 1 1 1 1 1 1 1 1 1 1 1 1 1 1 1 1 1 1 1 1 1 1 1 1 1 1 1 1 1 1 1 1 1 1 1 1 1 1 1 1 1 1 1 1 1 1 1 1 1 1 1 1 1 1 1 1 1 1 1 1 1 1 1 1 1 1 1 1 1 1 1 1 1 1 1 1 1 1 1 1 1 1 1 1 1 1 1 1 1 1 1 1 1 1 1 1 1 1 1 1 1 1 1 1 1 1 1 1 1 1 1 1 1 1 1 1 1 1 1 1 1 1 1 1 1 1 1 1 1 1 1 1 1 1 1 1 1 1 1 1 1 1 1 1 1 1 1 1 1 1 1 1 1 1 1 1 1 1 1 1 1 1 1 1 1 1 1 1 1 1 1 1 1 1 1 1 1 1 1 1 1 1 1 1 1 1 1 1 1 1 1 1 1 1 1 1 1 1 1 1 1 1 1 1 1 1 1 1 1 1 1 1 1 1 1 1 1 1 1 1 1 1 1 1 1 1 1 1 1 1 1 1 1 1 1 1 1 1 1 1 1 1 1 1 1 1 1 1 1 1 1 1 1 1 1 1 1 1 1 1 1 1 1 1 1 1 1 1 1 1 1 1 1 1 1 1 1 1 1 1 1 1 1 1 1 1 1 1 1 1 1 1 1 1 1 1 1 1 1 1 1 1 1 1 1 1 1 1 1 1 1 1 1 1 1 1 1 1 1 1 1 1 1 1 1 1 1 1 1 1 1 1 1 1 1 1 1 1 1 1 1 1 1 1 1 1 1 1 1 1 1 1 1 1 1 1 1 1 1 1 1 1 1 1 1 1 1 1 1 1 1 1 1 1 1 1 1 1 1 1 1 1 1 1 1 1 1 1 1 1 1 1 1 1 1 1 1 1 1 1 1 1 1 1 1 1 1 1 1 1 1 1 1 1 1 1 1 1 1 1 1 1 1 1 1 1 1 1 1 1 1 1 1 1 1 1 1 1 1 1 1 1 1 1 1 1 1 1 1 1 1 1 1 1 1 1 1 1 1 1 1 1 1 1 1 1 1 1 1 1 1 1 1 1 1 1 1 1 1 1 1 1 1 1 1 1 1 1 1 1 1 1 1 1 1 1 1 1 1 1 1 1 1 1 1 1 1 1 1 1 1 1 1 1 1 1 1 1 1 1 1 1 1 1 1 1 1 1 1 1 1 1 1 1 1 1 1 1 1 1 1 1 1 1 1 1 1 1 1 1 1 1 1 1 1 1 1 1 1 1 1 1 1 1 1 1 1 1 1 1 1 1 1 1 1 1 1 1 1 1 1 1 1 1 1 1 1 1 1 1 1 1 1 1 1 1 1 1 1 1 1 1 1 1 1 1 1 1 1 1 1 1 1 1 1 1 1 1 1 1 1 1 1 1 1 1 1 1 1 1 1 1 1 1 1 1 1 1 1 1 1 1 1 1 1 1 1 1 1 1 1 1 1 1 1 1 1 1 1 1 1 1 1 1 1 1 1 1 1 1 1 1 1 1 1 1 1 1 1 1 1 1 1 1 1 1 1 1 1 1 1 1 1 1 1 1 1 1 1 1 1 1 1 1 1 1 1 1 1 1 1 1 1 1 1 1 1 1 1 1 1 1 1 1 1 1 1 1 1 1 1 1 1 1 1 1 1 1 1 1 1 1 1 1 1 1 1 1 1 1 1 1 1 1 1 1 1 1 1 1 1 1 1 1 1 1 1 1 1 1 1 1 1 1 1 1 1 1 1 1 1 1 1 1 1 1 1 1 1 1 1 1 1 1 1 1 1 1 1 1 1 1 1 1 1 1 1 1 1 1 1 1 1 1 1 1 1 1 1 1 1 1 1 1 1 1 1 1 1 1 1 1 1 1 1 1 1 1 1 1 1 1 1 1 1 1 1 1 1 1 1 1 1 1 1 1 1 1 1 1 1 1 1 1 1 1 1 1 1 1 1 1 1 1 1 1 1 1 1 1 1 1 1 1 1 1 1 1 1 1 1 1 1 1 1 1 1 1 1 1 1 1 1 1 1 1 1 1 1 1 1 1 1 1 1 1 1 1 1 1 1 1 1 1 1 1 1 1 1 1 1 1 1 1 1 1 1 1 1 1 1 1 1 1 1 1 1 1 1 1 1 1 1 1 1 1 1 1 1 1 1 1 1 1 1 1 1 1 1 1 1 1 1 1 1 1 1 1 1 1 1 1 1 1 1 1 1 1 1 1 1 1 1 1 1 1 1 1 1 1 1 1 1 1 1 1 1 1 1 1 1 1 1 1 1 1 1 1 1 1 1 1 1 1 1 1 1 1 1 1 1 1 1 1 1 1 1 1 1 1 1 1 1 1 1 1 1 1 1 1 1 1 1 1 1 1 1 1 1 1 1 1 1 1 1 1 1 1 1 1 1 1 1 1 1 1 1 1 1 1 1 1 1 1 1 1 1 1 1 1 1 1 1 1 1 1 1 1 1 1 1 1 1 1 1 1 1 1 1 1 1 1 1 1 1 1 1 1 1 1 1 1 1 1 1 1 1 1 1 1 1 1 1 1 1 1 1 1 1 1 1 1 1 1 1 1 1 1 1 1 1 1 1 1 1 1 1 1 1 1 1 1 1 1 1 1 1 1 1 1 1 1 1 1 1 1 1 1 1 1 1 1 1 1 1 1 1 1 1 1 1 1 1 1 1 1 1 1 1 1 1 1 1 1 1 1 1 1 1 1 1 1 1 1 1 1 1 1 1 1 1 1 1 1 1 1 1 1 1 1 1 1 1 1 1 1 1 1 1 1 1 1 1 1 1 1 1 1 1 1 1 1 1 1 1 1 1 1 1 1 1 1 1 1 1 1 1 1 1 1 1 1 1 1 1 1 1 1 1 1 1 1 1 1 1 1 1 1 1 1 1 1 1 1 1 1 1 1 1 1 1 1 1 1 1 1 1 1 1 1 1 1 1 1 1 1 1 1 1 1 1 1 1 1 1 1 1 1 1 1 1 1 1 1 1 1 1 1 1 1 1 1 1 1 1 1 1 1 1 1 1 1 1 1 1 1 1 1 1 1 1 1 1 1 1 1 1 1 1 1 1 1 1 1 1 1 1 1 1 1 1 1 1 1 1 1 1 1 1 1 1 1 1 1 1 1 1 1 1 1 1 1 1 1 1 1 1 1 1 1 1 1 1 1 1 1 1 1 1 1 1 1 1 1 1 1 1 1 1 1 1 1 1 1 1 1 1 1 1 1 1 1 1 1 1 1 1 1 1 1 1 1 1 1 1 1 1 1 1 1 1 1 1 1 1 1 1 1 1 1 1 1 1 1 1 1 1 1 1 1 1 1 1 1 1 1 1 1 1 1 1 1 1 1 1 1 1 1 1 1 1 1 1 1 1 1 1 1 1 1 1 1 1 1 1 1 1 1 1 1 1 1 1 1 1 1 1 1 1 1 1 1 1 1 1 1 1 1 1 1 1 1 1 1 1 1 1 1 1 1 1 1 1 1 1 1 1 1 1 1 1 1 1 1 1 1 1 1 1 1 1 1 1 1 1 1 1 1 1 1 1 1 1 1 1 1 1 1 1 1 1 1 1 1 1 1 1 1 1 1 1 1 1 1 1 1 1 1 1 1 1 1 1 1 1 1 1 1 1 1 1 1 1 1 1 1 1 1 1 1 1 1 1 1 1 1 1 1 1 1 1 1 1 1 1 1 1 1 1 1 1 1 1 1 1 1 1 1 1 1 1 1 1 1 1 1 1 1 1 1 1 1 1 1 1 1 1 1 1 1 1 1 1 1 1 1 1 1 1 1 1 1 1 1 1 1 1 1 1 1 1 1 1 1 1 1 1 1 1 1 1 1 1 1 1 1 1 1 1 1 1 1 1 1 1 1 1 1 1 1 1 1 1 1 1 1 1 1 1 1 1 1 1 1 1 1 1 1 1 1 1 1 1 1 1 1 1 1 1 1 1 1 1 1 1 1 1 1 1 1 1 1 1 1 1 1 1 1 1 1 1 1 1 1 1 1 1 1 1 1 1 1 1 1 1 1 1 1 1 1 1 1 1 1 1 1 1 1 1 1 1 1 1 1 1 1 1 1 1 1 1 1 1 1 1 1 1 1 1 1 1 1 1 1 1 1 1 1 1 1 1 1 1 1 1 1 1 1 1 1 1 1 1 1 1 1 1 1 1 1 1 1 1 1 1 1 1 1 1 1 1 1 1 1 1 1 1 1 1 1 1 1 1 1 1 1 1 1 1 1 1 1 1 1 1 1 1 1 1 1 1 1 1 1 1 1 1 1 1 1 1 1 1 1 1 1 1 1 1 1 1 1 1 1 1 1 1 1 1 1 1 1 1 1 1 1 1 1 1 1 1 1 1 1 1 1 1 1 1 1 1 1 1 1 1 1 1 1 1 1 1 1 1 1 1 1 1 1 1 1 1 1 1 1 1 1 1 1 1 1 1 1 1 1 1 1 1 1 1 1 1 1 1 1 1 1 1 1 1 1 1 1 1 1 1 1 1 1 1 1 1 1 1 1 1 1 1 1 1 1</DataArray>
        <DataArray Name="velocity" NumberOfComponents="3" format="ascii" type="Float32">0.111222965307933 -10.034523343160405 0.000000204069776 0.060798759905715 -9.935904325858468 -0.000000190140195 -0.071206933171497 -9.884084432469276 0.000000308655697 -0.171886001035502 -9.958255368500348 -0.000000260970818 -0.039997794951109 -9.771913144069899 0.000000091554724 -0.227158264023221 -9.977487201416164 -0.000000721114926 0.086633434470767 -9.861281865091645 -0.000000224761984 -0.103250060068883 -9.96918923036622 0.000000097092572 -0.035815864452951 -9.969952190026536 -0.000000024493647 -0.111370627203807 -10.032148997934742 0.000000518363386 0.004741521037259 -9.875578834878597 -0.000000576482735 0.08448166449876 -10.152994912657753 -0.000000209789812 0.22239636412355 -9.960703397618671 -0.000000165179448 -0.000648324151615 -9.952772131477085 -0.000000030878165 -0.074979094596323 -9.901884480634408 0.000000311960314 0.015426521014878 -9.844528113202719 -0.000000490535573 -0.022796521920569 -9.910374788602345 0.000000152890839 -0.132830513917288 -10.091471916270173 -0.000000140902584 0.005419284151676 -10.085254336169598 -0.000000133736992 -0.106197920702529 -9.952219028661762 -0.000000001573956 0.078692001007185 -10.021936107864828 -0.000000142363824 -0.006949737114539 -10.071828393805262 0.00000020865306 -0.170487690100965 -9.970945649171341 -0.000000080309458 -0.064108807740366 -9.866331368123767 -0.000000033768967 0.015559057604237 -9.791834055635471 0.000000339126658 0.00385770075883 -10.056238095797996 0.000000044708184 -0.010558910397554 -9.926931792162575 -0.000000056852839 0.031924992868503 -9.983631792329065 0.000000317541386 -0.0891060627085 -9.901469688889939 0.000000409498197 0.131702329392893 -10.137314749307516 0.000000225564796 0.050560664285898 -10.089904389130385 0.000000053808967 -0.015937587886348 -9.898880906329705 -0.00000002385826 0.097396028590368 -10.050213655469204 -0.000000265176146 -0.02422754383606 -9.964800718337736 -0.000000151659898 -0.107395493835553 -9.866081051248283 -0.000000024615718 0.052879315081528 -9.989673468912919 -0.000000579796687 0.039678316202078 -9.909651716669071 -0.000000420881531 -0.011126648624676 -9.92190795351398 -0.000000228764151 -0.039513973063784 -9.878692630748533 0.000000340205014 0.026411022836321 -9.939957276592022 0.000000267665351 -0.009275030304019 -10.158325439381279 0.000000361503137 0.194020105996808 -10.085066550298873 0.000000277696306 0.079946514710429 -10.146350079705879 0.000000274545499 0.101145601900883 -10.068100228325008 -0.000000069926506 -0.02901293954319 -10.149999399898084 0.000000419906245 -0.083406104557032 -10.059724800236364 -0.000000320075541 0.141747168030344 -10.209687363108115 -0.000000379312153 -0.002831498282961 -9.838556380675932 -0.000000241503321 0.153803457140307 -10.097410239298217 0.000000044693781 0.133871535604884 -10.070399125043567 0.000000337449056 -0.076357948619869 -10.09931241721616 0.000000079398934 0.049394548396933 -10.149427631856915 -0.000000086152953 -0.070387086950937 -9.952984249769914 -0.00000029178804 -0.03504507966526 -9.972557908476647 0.000000353424356 -0.069362790988699 -9.94936146038849 -0.000000227955152 -0.066194421944923 -9.996858749126392 0.000000026333416 -0.067216886634792 -10.053911224193648 0.000000640341339 0.083404738419578 -9.93502156602251 -0.000000124627015 0.007594038941451 -9.977203398851666 0.000000621409146 0.068787396427896 -9.872968484505842 -0.000000025797246 0.003967235217819 -10.081074721816327 -0.000000304208797 -0.015858611283146 -9.87681670451318 -0.000000283333337 0.043875595575322 -9.838696630434855 -0.000000532045166 0.035919889204332 -10.122270948167888 0.000000467395199 -0.111950020044848 -10.036002645347287 0.000000222525085 -0.205434641006968 -9.923486561591421 0.000000078392151 0.223046188403895 -10.133167245458615 0.000000264114385 0.029750784485255 -10.063568455309515 0.000000498219746 0.019277009446157 -9.839021273810657 0.000000229892731 0.020378688174909 -9.900006118928065 0.000000140628083 0.135365327443163 -9.929579525533988 -0.00000007449401 0.00697346091236 -9.993807992991965 -0.000000617845066 0.209455162850019 -10.003454418961773 0.000000115197601 -0.034893432290892 -9.965729762312783 -0.000000274435324 0.07465954748009 -10.125685708176691 0.000000651092097 0.061591333228471 -10.12884446228092 0.000000386886392 0.115358329588498 -10.105382845482977 0.000000400320865 -0.072209645571237 -10.113182180365857 -0.000000383667618 -0.064491844076529 -9.980072793863295 0.000000074609673 -0.119338057341261 -9.93456202097042 -0.000000562070631 0.000873221830561 -9.952774370874049 -0.000000005783335 -0.175246125704179 -9.962166103724927 -0.000000119282759 0.03336515522974 -10.068176535181387 -0.000000064899773 -0.075906148497661 -9.746585101363621 0.000000118836501 0.066528403140878 -10.007341905068818 0.00000014133129 -0.043696656025719 -9.907161470410481 -0.000000375197483 -0.168932089746516 -9.892706048074961 0.00000035785177 0.062334855455659 -10.049781074348978 -0.000000235216867 0.203234759768727 -10.019743359553807 -0.000000066710803 -0.017852073965146 -10.192777908985015 0.000000385648264 0.057708295282854 -10.086361264290657 -0.000000089429041 0.011620582407616 -10.043766671237698 -0.00000033900998 -0.074036712065523 -9.831317070050952 -0.000000248453226 0.141388187870447 -9.888124526566427 -0.00000020726986 -0.051998596787006 -10.107252757473663 0.000000093666898 0.136174412113825 -9.841324074248879 -0.000000266743237 0.119351710586385 -10.088752038117789 -0.000000426050936 0.064964912294385 -10.080501429552349 -0.000000013083544 0.053113317664156 -9.976635930219535 0.000000363042253 0.079562107351278 -10.126230517388079 -0.000000333064168 0.00688580707757 -10.086613881615113 0.000000463659345 -0.035651553887316 -9.944599122867404 -0.000000241230436 0.028146200677816 -10.05980504313759 0.000000399790323 -0.082118746518524 -10.037930678492378 0.000000364026175 0.15193801925972 -9.807349701779652 -0.000000284568789 0.097500099668653 -10.123651363268324 -0.000000192873391 0.095651630968302 -10.073414528812215 0.000000427107689 -0.056584240734859 -10.103039096208787 -0.000000905089097 0.098353716906498 -10.050626867556279 -0.000000222139821 -0.131745052549658 -10.02683181972864 -0.000000136572134 0.102540639504278 -9.922927695221126 -0.000000528708896 -0.073976237748056 -9.963724787215384 0.000000202923488 -0.056134085817556 -9.86746914838549 -0.00000068681278 0.039890221657477 -10.032668498954951 -0.000000316639044 0.142189038498053 -9.976738907099643 -0.000000035300249 -0.028190284562602 -9.943699818908685 -0.000000468956928 -0.00668012619107 -9.725833798004908 0.000000164616558 -0.075803723519225 -10.050777360855205 -0.000000119008143 0.112305210035694 -10.002428137721765 0.000000048591926 -0.012363713921264 -9.881510787210713 0.000000087407005 -0.00374617678473 -10.187149705760067 0.000000450913609 -0.095723607013267 -9.944523391116102 -0.000000015577473 0.040094156965749 -10.070644113217016 -0.000000292280629 0.248015011491548 -10.015130288378172 0.00000008851123 0.072699828120481 -9.958013271103757 -0.000000487538295 -0.064369627573494 -10.044076998237491 0.000000163747597 -0.000402508388618 -10.105396179350675 -0.000000036171495 -0.094082797392715 -10.036298042948458 -0.000000287271707 -0.019931617912073 -9.950878132697888 0.00000028786634 0.076498851418998 -9.977147450118576 0.000000153916675 0.040143836504852 -9.962082243876033 -0.000000096512125 -0.005002181178105 -10.210477851297311 0.000000463742005 -0.108735188622354 -9.836555087916356 0.000000117478421 0.065675784214299 -10.145443372826145 -0.000000205774262 -0.0787809215293 -9.970416541046356 0.000000468415919 -0.089672391390594 -10.139234460921747 0.000000191195939 -0.026710174383887 -10.064756773514555 -0.000000568628601 -0.011729544158168 -9.929841490210713 -0.000000269817618 0.056061117158599 -10.157277541474755 0.000000168110866 0.072661893525805 -9.880318687146229 0.000000190408529 -0.004469247900876 -10.122632418815446 0.000000122590379 0.088339056687209 -9.971466523189024 0.000000089318957 0.009011077519667 -10.14568681093607 0.000000006146295 0.16157887168675 -10.207404178781502 -0.00000012325953 0.117750326633318 -10.033660230890561 0.000000457362971 -0.111127468304254 -10.086527783617397 0.000000167145602 0.138636323758218 -9.909766244152374 -0.000000035930361 0.069976472738724 -9.932222735372452 -0.00000000895091 -0.034613665626519 -10.06464887893654 -0.000000085340963 0.067904390881498 -9.958936713267278 -0.000000428637958 -0.061944062925776 -10.006998781002757 0.000000132207978 -0.146875741497659 -10.013253637887013 -0.000000247149886 -0.081670724962463 -10.023888423415167 0.000000178095879 -0.129380360121197 -9.897448964320606 -0.000000141172021 0.025418430218639 -10.030313296976042 -0.000000070275669 -0.022399773184538 -9.851270140959492 -0.000000002392878 0.183167354223865 -10.054792117953378 -0.000000044741685 -0.096401410626119 -9.977298719329522 0.00000019088281 0.249535288397602 -9.905153879113474 0.000000062241859 0.118508959463887 -10.172172560779083 -0.000000118688181 -0.033546780608578 -9.933585296632959 -0.000000312584446 -0.009131157602067 -10.127985310860929 0.000000160849585 0.237453278443488 -9.945041854974432 0.000000306591532 0.16902101395464 -9.862324160223061 -0.000000297953901 -0.053458034275323 -9.943075142383904 0.000000398265408 -0.012673936537483 -10.147945065012042 -0.00000002888444 0.084837515082112 -10.054293623813123 0.00000010981571 -0.032547540619906 -9.913784354452615 0.000000263426331 -0.052664893848474 -9.893505451224454 -0.000000409634353 0.009129955275515 -10.026575203312337 -0.000000010409832 -0.072377990330099 -9.916944939807578 -0.000000045224962 0.040414614929563 -9.892187624704109 0.000000255006453 -0.070743647943759 -10.102879111947853 0.000000134805348 -0.124210807647233 -9.953748096151484 0.000000201658882 -0.072220374637267 -9.967681353067107 0.000000571551058 0.091431780349318 -9.928932146119299 -0.000000303658855 -0.128858637708412 -10.04247812006531 0.000000297288391 -0.182287406757167 -10.065308389425985 0.000000406236772 -0.134858141184434 -10.057248130289063 -0.000000118953641 0.011500477311863 -10.120544667418889 -0.000000161195839 0.003500929510391 -10.030079460197813 -0.000000518423445 -0.14868525331253 -10.147262302373097 0.000000234512317 -0.088358119724698 -9.891156998858905 -0.000000186080254 -0.125741525176852 -9.926218054298625 -0.000000091521913 0.012555409609444 -9.912456868974282 0.000000185013758 0.058658034289383 -9.902279254990777 -0.000000086105638 0.112765780278856 -10.107183574736458 -0.000000294809538 0.011597535124559 -9.878967554100617 -0.000000089337961 0.127206583326067 -9.846751120561066 -0.00000008023193 0.04634488603056 -10.248628136468815 0.000000349110303 -0.086545236065791 -9.862617766036404 -0.000000028298564 0.102746119168767 -9.939476649624165 0.000000520457305 -0.042267897088775 -9.982022086742509 0.000000495513636 -0.11861120711819 -9.954826454431661 -0.000000034733533 0.175701269091993 -9.940518790151426 -0.000000045062019 -0.088132272786775 -10.107830106113154 -0.000000021253179 0.039721839433618 -9.908563713144678 0.000000123132375 -0.104332101660385 -10.05183866069007 0.000000791678999 0.034910382975826 -9.920873651787163 0.000000272198235 0.108090255852693 -10.131621964939054 0.000000106077058 0.012377087206115 -10.011431669651722 -0.000000287122747 -0.123150333733703 -9.997674055693302 -0.000000679336924 0.094823640640775 -9.957407143937676 0.000000400402338 -0.080676701371944 -9.835356831253526 -0.00000046649662 0.107902033383039 -9.986135892949376 0.000000198267933 0.010537795994645 -9.980934968231784 -0.00000023132931 0.008690941070731 -9.926784924215697 -0.000000204777104 -0.031698837902687 -9.701914110321994 -0.000000441997793 0.124336635525473 -9.962593939067979 -0.000000247181415 0.046282930391967 -10.018619163149401 0.000000001060335 0.099576555105424 -9.97627371595626 -0.000000056192998 0.06845677024223 -9.871167561088027 0.000000128609493 0.063211959633869 -9.932317508557556 -0.000000674248849 -0.148355243610402 -9.934727951661822 0.00000023613312 -0.011144549126915 -10.126344274068202 0.000000232345668 0.031503404443293 -9.961178576574735 0.000000392552954 0.082737782176636 -9.963483274244961 0.000000017960902 -0.138006688691083 -9.823475080762158 -0.0000002251567 0.113663688546366 -9.829166319864761 -0.00000017342337 0.013141277863685 -10.118008744835583 -0.0000003754661 0.008083400046214 -10.044767320636842 0.000000606450034 0.190461090622401 -9.991279644829438 -0.000000145126412 0.128106833955864 -9.985817828073426 0.000000264375119 -0.100954594601431 -10.002658733095021 -0.000000200815466 0.001446353536159 -10.063786494262336 -0.000000143274682 0.118867135999178 -10.043619302695101 0.000000336568575 0.209707054359643 -10.072950686743095 -0.000000122398293 -0.10831009984256 -10.026431382171483 0.000000396164198 -0.147502724506547 -10.054370988486554 -0.000000462256887 0.030454577575662 -9.87063800868888 -0.000000004984736 0.214360221490531 -10.13811373055362 -0.000000488620457 -0.000886012391835 -9.981371331973918 -0.000000245300386 0.170322671461067 -9.882316079179448 -0.000000322031796 -0.068632092622511 -10.069214474147831 0.000000215075988 0.020311321742568 -9.933678559735785 -0.000000201219868 0.168760344140556 -10.026233037842358 0.000000736384132 -0.020550066587943 -9.885643225068973 -0.000000515414566 0.033009750525186 -9.977143973100807 0.000000082788894 -0.205455224714744 -9.958521388138118 -0.000000198738758 -0.15384817635806 -10.008815839329214 -0.000000144732105 0.060250830055043 -10.0132206347359 0.000000506912456 -0.136646110654848 -10.009225609949034 -0.000000057125648 0.073493082732513 -9.930141417182535 0.000000275119646 0.041348335522529 -10.02474150493326 0.000000013961841 -0.168064322048397 -10.097582291846042 -0.000000104462006 0.200578374938647 -9.820360461544356 -0.0000002510085 0.047038408239831 -10.118895184572358 -0.000000404429278 -0.034926761939497 -10.221880142762842 0.000000214850059 0.023905358445604 -9.935368344158109 -0.000000196244788 -0.13045993769528 -9.951968239498941 -0.000000247941935 -0.05053503215626 -10.120349797097642 -0.000000270649201 0.17397902442319 -9.890014279223587 0.000000205241035 0.167576564858503 -9.908545160380317 0.000000088855638 -0.067295414847313 -9.990823571203485 -0.000000007448927 0.038348951636239 -10.154499063584804 -0.000000014062759 0.052367481712414 -9.861855410271183 0.000000617691379 -0.126384907892774 -10.019695655215093 -0.000000334406495 -0.003157409875123 -9.858333564107911 0.000000774026806 0.012512792928026 -9.96444044347024 0.000000184537888 -0.076275118973988 -10.056489437474305 0.000000015592946 0.090377847426772 -10.021956597943115 0.000000555011099 0.042247633357281 -9.973777803875533 -0.000000079481684 -0.018812461875187 -10.176073591098941 -0.000000008200038 0.096428614600147 -9.967498746448872 0.000000462230924 0.019583046994357 -9.961902845720344 0.0000004496364 -0.084792104052525 -10.058389927551769 0.000000180176862 -0.050449969714971 -10.044989003985636 0.000000829016806 0.043742089707381 -10.112399449650351 -0.000000314315734 -0.045368169777056 -10.03311079582466 0.000000517359598 -0.054155105107536 -9.789392305087906 0.000000017608145 0.017518011012487 -10.066500702222312 0.000000196620613 -0.248834544311652 -10.008224254450864 -0.00000017799629 -0.054113462548103 -10.175466816690831 -0.000000437527302 -0.018626346706903 -9.970253219545977 -0.000000451240587 0.025307178015476 -10.135371123328008 -0.000000619712477 -0.052012129076577 -10.00415255534314 -0.000000146307928 0.066021037870956 -9.947978178611685 0.00000005262532 -0.059940305808734 -9.991095502454874 0.000000364959912 -0.109174900529116 -9.940908601066422 0.000000174620325 0.121097542267008 -10.104447925364511 0.000000245599165 0.080258446254427 -9.969763938635294 -0.000000273483418 -0.014386850936531 -10.040987114269114 0.000000182044569 0.061053327136446 -9.930608046626896 -0.000000048391406 0.116050984212604 -9.893826930079259 0.000000451978105 0.061785499676129 -10.028553800145932 -0.000000185518506 0.103132053346367 -10.08253092321808 -0.000000082278206 0.051113287639376 -10.05126637578433 -0.000000515290367 0.012318684071173 -10.059767649535827 0.000000060393429 -0.039208806958623 -10.05584787273691 -0.000000067185875 0.013162493145442 -10.063519083148718 0.00000030004441 -0.020887257401471 -10.167116479756789 -0.000000089956653 0.034273639338331 -10.122035389457446 0.000000298708742 0.25699996724759 -10.067990217810141 -0.000000089069831 0.087393333317481 -9.753990612568312 0.00000023128732 0.080175880165883 -10.082587364119032 -0.000000102049424 -0.136333261726795 -9.922869122163311 0.000000291759227 0.002600863667318 -10.034965120057555 -0.000000384933276 0.055933304863502 -10.019816928493038 0.000000238540718 -0.144935772812488 -9.98887380667459 -0.000000022220136 -0.08368630580138 -10.162640508843825 -0.000000786104318 0.136551755510535 -9.889733195250578 0.00000038633093 -0.041240632633924 -10.167404056962505 -0.000000212401764 0.123556357219117 -10.10188718175408 0.000000464662166 -0.075688894961377 -9.931382358575608 -0.000000616791989 -0.112988977080362 -9.915042458992934 0.000000322974161 0.106654199210427 -9.968936364652899 -0.000000358076618 -0.126009680696513 -9.887293634629307 -0.000000267742439 0.006190859362794 -9.877456707005436 -0.000000022203989 -0.0919371965939 -10.089866063791904 -0.00000002017667 -0.085529371217758 -9.991195561646231 -0.00000023352015 0.088207334671183 -9.974834106987801 -0.000000251855199 0.012882119293223 -9.86833643706164 -0.000000142252189 -0.13857552658383 -10.124523051007863 0.000000567469296 -0.019706779072116 -10.000515394802751 -0.000000517175609 -0.102694516421183 -9.896570856735039 0.000000212581797 0.133636756717458 -9.996938624648491 -0.00000036144204 -0.006115388948143 -10.081515021115592 -0.000000284318359 -0.13812232990623 -10.007414321810018 0.00000060