<?xml version="1.0" encoding="UTF-8" standalone="no" ?>
<VTKFile byte_order="LittleEndian" type="UnstructuredGrid" version="0.1">

  <UnstructuredGrid>
    <Piece NumberOfCells="0" NumberOfPoints="2355">
      <PointData>
        <DataArray Name="mass" NumberOfComponents="1" format="ascii" type="Float32">1 1 1 1 1 1 1 1 1 1 1 1 1 1 1 1 1 1 1 1 1 1 1 1 1 1 1 1 1 1 1 1 1 1 1 1 1 1 1 1 1 1 1 1 1 1 1 1 1 1 1 1 1 1 1 1 1 1 1 1 1 1 1 1 1 1 1 1 1 1 1 1 1 1 1 1 1 1 1 1 1 1 1 1 1 1 1 1 1 1 1 1 1 1 1 1 1 1 1 1 1 1 1 1 1 1 1 1 1 1 1 1 1 1 1 1 1 1 1 1 1 1 1 1 1 1 1 1 1 1 1 1 1 1 1 1 1 1 1 1 1 1 1 1 1 1 1 1 1 1 1 1 1 1 1 1 1 1 1 1 1 1 1 1 1 1 1 1 1 1 1 1 1 1 1 1 1 1 1 1 1 1 1 1 1 1 1 1 1 1 1 1 1 1 1 1 1 1 1 1 1 1 1 1 1 1 1 1 1 1 1 1 1 1 1 1 1 1 1 1 1 1 1 1 1 1 1 1 1 1 1 1 1 1 1 1 1 1 1 1 1 1 1 1 1 1 1 1 1 1 1 1 1 1 1 1 1 1 1 1 1 1 1 1 1 1 1 1 1 1 1 1 1 1 1 1 1 1 1 1 1 1 1 1 1 1 1 1 1 1 1 1 1 1 1 1 1 1 1 1 1 1 1 1 1 1 1 1 1 1 1 1 1 1 1 1 1 1 1 1 1 1 1 1 1 1 1 1 1 1 1 1 1 1 1 1 1 1 1 1 1 1 1 1 1 1 1 1 1 1 1 1 1 1 1 1 1 1 1 1 1 1 1 1 1 1 1 1 1 1 1 1 1 1 1 1 1 1 1 1 1 1 1 1 1 1 1 1 1 1 1 1 1 1 1 1 1 1 1 1 1 1 1 1 1 1 1 1 1 1 1 1 1 1 1 1 1 1 1 1 1 1 1 1 1 1 1 1 1 1 1 1 1 1 1 1 1 1 1 1 1 1 1 1 1 1 1 1 1 1 1 1 1 1 1 1 1 1 1 1 1 1 1 1 1 1 1 1 1 1 1 1 1 1 1 1 1 1 1 1 1 1 1 1 1 1 1 1 1 1 1 1 1 1 1 1 1 1 1 1 1 1 1 1 1 1 1 1 1 1 1 1 1 1 1 1 1 1 1 1 1 1 1 1 1 1 1 1 1 1 1 1 1 1 1 1 1 1 1 1 1 1 1 1 1 1 1 1 1 1 1 1 1 1 1 1 1 1 1 1 1 1 1 1 1 1 1 1 1 1 1 1 1 1 1 1 1 1 1 1 1 1 1 1 1 1 1 1 1 1 1 1 1 1 1 1 1 1 1 1 1 1 1 1 1 1 1 1 1 1 1 1 1 1 1 1 1 1 1 1 1 1 1 1 1 1 1 1 1 1 1 1 1 1 1 1 1 1 1 1 1 1 1 1 1 1 1 1 1 1 1 1 1 1 1 1 1 1 1 1 1 1 1 1 1 1 1 1 1 1 1 1 1 1 1 1 1 1 1 1 1 1 1 1 1 1 1 1 1 1 1 1 1 1 1 1 1 1 1 1 1 1 1 1 1 1 1 1 1 1 1 1 1 1 1 1 1 1 1 1 1 1 1 1 1 1 1 1 1 1 1 1 1 1 1 1 1 1 1 1 1 1 1 1 1 1 1 1 1 1 1 1 1 1 1 1 1 1 1 1 1 1 1 1 1 1 1 1 1 1 1 1 1 1 1 1 1 1 1 1 1 1 1 1 1 1 1 1 1 1 1 1 1 1 1 1 1 1 1 1 1 1 1 1 1 1 1 1 1 1 1 1 1 1 1 1 1 1 1 1 1 1 1 1 1 1 1 1 1 1 1 1 1 1 1 1 1 1 1 1 1 1 1 1 1 1 1 1 1 1 1 1 1 1 1 1 1 1 1 1 1 1 1 1 1 1 1 1 1 1 1 1 1 1 1 1 1 1 1 1 1 1 1 1 1 1 1 1 1 1 1 1 1 1 1 1 1 1 1 1 1 1 1 1 1 1 1 1 1 1 1 1 1 1 1 1 1 1 1 1 1 1 1 1 1 1 1 1 1 1 1 1 1 1 1 1 1 1 1 1 1 1 1 1 1 1 1 1 1 1 1 1 1 1 1 1 1 1 1 1 1 1 1 1 1 1 1 1 1 1 1 1 1 1 1 1 1 1 1 1 1 1 1 1 1 1 1 1 1 1 1 1 1 1 1 1 1 1 1 1 1 1 1 1 1 1 1 1 1 1 1 1 1 1 1 1 1 1 1 1 1 1 1 1 1 1 1 1 1 1 1 1 1 1 1 1 1 1 1 1 1 1 1 1 1 1 1 1 1 1 1 1 1 1 1 1 1 1 1 1 1 1 1 1 1 1 1 1 1 1 1 1 1 1 1 1 1 1 1 1 1 1 1 1 1 1 1 1 1 1 1 1 1 1 1 1 1 1 1 1 1 1 1 1 1 1 1 1 1 1 1 1 1 1 1 1 1 1 1 1 1 1 1 1 1 1 1 1 1 1 1 1 1 1 1 1 1 1 1 1 1 1 1 1 1 1 1 1 1 1 1 1 1 1 1 1 1 1 1 1 1 1 1 1 1 1 1 1 1 1 1 1 1 1 1 1 1 1 1 1 1 1 1 1 1 1 1 1 1 1 1 1 1 1 1 1 1 1 1 1 1 1 1 1 1 1 1 1 1 1 1 1 1 1 1 1 1 1 1 1 1 1 1 1 1 1 1 1 1 1 1 1 1 1 1 1 1 1 1 1 1 1 1 1 1 1 1 1 1 1 1 1 1 1 1 1 1 1 1 1 1 1 1 1 1 1 1 1 1 1 1 1 1 1 1 1 1 1 1 1 1 1 1 1 1 1 1 1 1 1 1 1 1 1 1 1 1 1 1 1 1 1 1 1 1 1 1 1 1 1 1 1 1 1 1 1 1 1 1 1 1 1 1 1 1 1 1 1 1 1 1 1 1 1 1 1 1 1 1 1 1 1 1 1 1 1 1 1 1 1 1 1 1 1 1 1 1 1 1 1 1 1 1 1 1 1 1 1 1 1 1 1 1 1 1 1 1 1 1 1 1 1 1 1 1 1 1 1 1 1 1 1 1 1 1 1 1 1 1 1 1 1 1 1 1 1 1 1 1 1 1 1 1 1 1 1 1 1 1 1 1 1 1 1 1 1 1 1 1 1 1 1 1 1 1 1 1 1 1 1 1 1 1 1 1 1 1 1 1 1 1 1 1 1 1 1 1 1 1 1 1 1 1 1 1 1 1 1 1 1 1 1 1 1 1 1 1 1 1 1 1 1 1 1 1 1 1 1 1 1 1 1 1 1 1 1 1 1 1 1 1 1 1 1 1 1 1 1 1 1 1 1 1 1 1 1 1 1 1 1 1 1 1 1 1 1 1 1 1 1 1 1 1 1 1 1 1 1 1 1 1 1 1 1 1 1 1 1 1 1 1 1 1 1 1 1 1 1 1 1 1 1 1 1 1 1 1 1 1 1 1 1 1 1 1 1 1 1 1 1 1 1 1 1 1 1 1 1 1 1 1 1 1 1 1 1 1 1 1 1 1 1 1 1 1 1 1 1 1 1 1 1 1 1 1 1 1 1 1 1 1 1 1 1 1 1 1 1 1 1 1 1 1 1 1 1 1 1 1 1 1 1 1 1 1 1 1 1 1 1 1 1 1 1 1 1 1 1 1 1 1 1 1 1 1 1 1 1 1 1 1 1 1 1 1 1 1 1 1 1 1 1 1 1 1 1 1 1 1 1 1 1 1 1 1 1 1 1 1 1 1 1 1 1 1 1 1 1 1 1 1 1 1 1 1 1 1 1 1 1 1 1 1 1 1 1 1 1 1 1 1 1 1 1 1 1 1 1 1 1 1 1 1 1 1 1 1 1 1 1 1 1 1 1 1 1 1 1 1 1 1 1 1 1 1 1 1 1 1 1 1 1 1 1 1 1 1 1 1 1 1 1 1 1 1 1 1 1 1 1 1 1 1 1 1 1 1 1 1 1 1 1 1 1 1 1 1 1 1 1 1 1 1 1 1 1 1 1 1 1 1 1 1 1 1 1 1 1 1 1 1 1 1 1 1 1 1 1 1 1 1 1 1 1 1 1 1 1 1 1 1 1 1 1 1 1 1 1 1 1 1 1 1 1 1 1 1 1 1 1 1 1 1 1 1 1 1 1 1 1 1 1 1 1 1 1 1 1 1 1 1 1 1 1 1 1 1 1 1 1 1 1 1 1 1 1 1 1 1 1 1 1 1 1 1 1 1 1 1 1 1 1 1 1 1 1 1 1 1 1 1 1 1 1 1 1 1 1 1 1 1 1 1 1 1 1 1 1 1 1 1 1 1 1 1 1 1 1 1 1 1 1 1 1 1 1 1 1 1 1 1 1 1 1 1 1 1 1 1 1 1 1 1 1 1 1 1 1 1 1 1 1 1 1 1 1 1 1 1 1 1 1 1 1 1 1 1 1 1 1 1 1 1 1 1 1 1 1 1 1 1 1 1 1 1 1 1 1 1 1 1 1 1 1 1 1 1 1 1 1 1 1 1 1 1 1 1 1 1 1 1 1 1 1 1 1 1 1 1 1 1 1 1 1 1 1 1 1 1 1 1 1 1 1 1 1 1 1 1 1 1 1 1 1 1 1 1 1 1 1 1 1 1 1 1 1 1 1 1 1 1 1 1 1 1 1 1 1 1 1 1 1 1 1 1 1 1 1 1 1 1 1 1 1 1 1 1 1 1 1 1 1 1 1 1 1 1 1 1 1 1 1 1 1 1 1 1 1 1 1 1 1 1 1 1 1 1 1 1 1 1 1 1 1 1 1 1 1 1 1 1 1 1 1 1 1 1 1 1 1 1 1 1 1 1 1 1 1 1 1 1 1 1 1 1 1 1 1 1 1 1 1 1 1 1 1 1 1 1 1 1 1 1 1 1 1 1 1 1 1 1 1 1 1 1 1 1 1 1 1 1 1 1 1 1 1 1 1 1 1 1 1 1 1 1 1 1 1 1 1 1 1 1 1 1 1 1 1 1 1 1 1 1 1 1 1 1 1 1 1 1 1 1 1 1 1 1 1 1 1 1 1 1 1 1 1 1 1 1 1 1 1 1 1 1 1 1 1 1 1 1 1 1 1 1 1 1 1 1 1 1 1 1 1 1 1 1 1 1 1 1 1 1 1 1 1 1 1 1 1 1 1 1 1 1 1 1 1 1 1 1 1 1 1 1 1 1 1 1 1 1 1 1 1 1</DataArray>
        <DataArray Name="velocity" NumberOfComponents="3" format="ascii" type="Float32">0.111222648943793 -10.034524087940738 -0.000000620328949 0.060800892827293 -9.935906640013268 0.000000085407766 -0.071205111811572 -9.884082235611162 -0.000000059200858 -0.171883876651339 -9.958261863692512 -0.000000586151971 -0.040010474670562 -9.771905707614144 0.000000425054174 -0.227152599227726 -9.977503884179665 -0.000000478871699 0.08662898212271 -9.861266582739157 0.000000196922183 -0.103257581160821 -9.969232785040038 0.000000157258651 -0.035821295137592 -9.969908475539452 0.000000187755137 -0.111372668438347 -10.032303889132073 0.000000324565473 0.004744371426135 -9.875423571429936 0.000000067738948 0.084485804051409 -10.154007155655485 0.000000390921207 0.222403515527001 -9.959690569884307 0.000000454632221 -0.000641316724523 -9.961261389430392 0.000000160886602 -0.074975369130175 -9.893399442720572 0.000000540368938 0.015419839912693 -9.844360137661226 -0.000000275434685 -0.022792066980293 -9.910542746977894 0.000000171857793 -0.132838847623543 -10.090433916222828 0.000000051984299 0.0054143920002 -10.086297543344442 0.00000025570646 -0.106198110409924 -9.943678056647048 0.000000312074269 0.078667864248432 -10.030490206155619 0.000000186936189 -0.006954406314604 -10.07180724757896 0.000000656891309 -0.170499732584635 -9.970993876391463 0.000000064275082 -0.064108427951812 -9.866281287516717 0.000000516520396 0.01553387615143 -9.792001977005697 0.000000224717777 0.003839061000853 -10.056069950753743 -0.000000235972721 -0.01058378681984 -9.92796803684876 0.000000587081759 0.031898764376956 -9.982596226160238 -0.000000035646468 -0.089151359315934 -9.909991961114159 0.000000051141401 0.131658585300373 -10.128793669402384 0.00000042056322 0.050566322799883 -10.08989475354984 -0.000000300864618 -0.015929455928269 -9.898892773466702 -0.000000206661789 0.097395485262052 -10.050188731052428 0.00000023907919 -0.024235137255744 -9.964831338570757 -0.000000242533279 -0.107395008223643 -9.866020617714476 -0.000000182321949 0.052880494577709 -9.989746088724406 -0.000000319126228 0.039711177489544 -9.909460031115474 -0.000000073320877 -0.01110158609235 -9.922130587994099 0.000000479831184 -0.039470354942116 -9.877600789694757 0.0000001994476 0.026462245600248 -9.941168141613502 -0.000000180435834 -0.009207207162482 -10.149619790189435 0.000000336106269 0.19410098512252 -10.094641310950097 -0.000000138841987 0.079988856255889 -10.145313599071178 -0.000000375067458 0.101187987249982 -10.076631695317799 -0.00000028207881 -0.028959789965807 -10.141463259694779 -0.000000558946044 -0.083407962947211 -10.059728723922234 0.00000026839324 0.141734635620666 -10.209689371222035 0.000000077890774 -0.00283914997016 -9.838549166235708 0.000000346895319 0.153785837455418 -10.097423705954959 0.000000150003918 0.133855529160163 -10.070383656756734 -0.000000150697562 -0.07636516858307 -10.099342032909687 0.00000102915796 0.04937241040642 -10.149393231728002 -0.000000280165783 -0.070415179484396 -9.953057004512086 0.000000576588002 -0.035083851413502 -9.972474272344741 0.000000673935878 -0.069438973999331 -9.949588587986105 -0.00000032195751 -0.066268266549735 -9.996600092953299 -0.000000233704442 -0.067460521982916 -10.05509408832563 -0.000001035260174 0.083157632402679 -9.933719128316834 -0.000000332755956 0.007124398128838 -9.985902998458164 -0.000000340455066 0.068305414820884 -9.863396985704577 -0.000000244085732 0.00394659478146 -10.082111133108127 0.000000393274118 -0.015887210804151 -9.868300779444759 -0.000000297372474 0.043833254253175 -9.847234265377653 0.000000361963879 0.035932173728454 -10.122275287058658 -0.000000355165582 -0.111941497568454 -10.035982111360434 0.00000009790204 -0.205409389516779 -9.92351144454773 0.000000244038199 0.223062980952302 -10.133141166741986 0.00000046324811 0.029781668597569 -10.063632277464613 0.000000531010977 0.019299576244617 -9.838955870723938 -0.000000209786239 0.020450195465086 -9.900216482314869 0.000000299378182 0.135437098284872 -9.929366293797964 -0.000000526513317 0.007207668812317 -9.994944888548799 -0.000000246148454 0.209688136907142 -10.00231239359927 -0.000000287460893 -0.034427668119469 -9.974267064649771 -0.00000011555294 0.075126809671612 -10.117129513004217 -0.00000021559509 0.061582767467475 -10.128873576196185 0.00000014109242 0.115363022416196 -10.105325306213059 -0.000000190555287 -0.07221616139979 -10.113239104129487 0.000000217365156 -0.064450590615322 -9.979878818637403 0.000000222070887 -0.119299047808725 -9.934755884904236 -0.000000020284747 0.00106845624503 -9.951674322875462 -0.000000244546857 -0.175062755788969 -9.963265635553995 -0.000000792838144 0.033758457496313 -10.059733056622647 0.000000034639047 -0.075512000260378 -9.755030940734281 -0.000000675602513 0.066333404416687 -10.007746937916158 0.000000104988839 -0.043895434827578 -9.906753536642137 -0.000000010957059 -0.171351924169598 -9.895976042751233 0.000000034332417 0.05991566195872 -10.046511249714804 0.00000023809117 0.199725859677752 -10.02826281228605 0.000000219809921 -0.021359950554702 -10.184259476938148 -0.000000155559998 0.057727936468451 -10.08636607569705 0.000000188867426 0.011628143689772 -10.043762167188904 -0.000000486160779 -0.074014380015805 -9.831317576828148 0.00000043164325 0.141405265981984 -9.888126572456986 -0.000000471372922 -0.051981626705843 -10.107251329025727 0.000000081396791 0.136199334786908 -9.84133209332416 -0.000000054404136 0.11938515819439 -10.088744079246245 -0.000000148271723 0.0650013168992 -10.080532857491509 -0.000000135668665 0.053154415730048 -9.976605966624025 -0.00000001593793 0.079692969008803 -10.126421966737807 0.000000426335845 0.007027521797106 -10.086422290245366 0.000000012918745 -0.03346099076102 -9.946734516994203 -0.000000279105802 0.030346584481459 -10.057669519001653 0.000000272989147 -0.079063554409329 -10.037915652339189 0.000000032598637 0.154994829320408 -9.807365313293106 0.00000007198469 0.097453544907605 -10.123650885383997 -0.000000094097368 0.095612039741519 -10.073421022746201 -0.000000087214946 -0.05662475872391 -10.10303303974727 -0.000000181951911 0.098294026849446 -10.050644219672224 -0.000000015831149 -0.131797524140849 -10.026813972847325 -0.000000097967863 0.102477525816496 -9.922975815527543 -0.000000678317955 -0.074043815929652 -9.963676778970534 0.000000149789752 -0.05626410393224 -9.867629503501277 -0.00000019006034 0.039762332620793 -10.032507602513997 -0.000000003924142 0.141757458843769 -9.9776170369135 0.000000212377237 -0.02860448000063 -9.942822159400993 0.000000298447929 -0.009539418567518 -9.732066755430234 0.000000118126562 -0.078643993516572 -10.044541365855924 0.000000294394398 0.112386616742188 -10.002345481558558 -0.000000060102257 -0.012286116657251 -9.881604898722605 -0.000000101221583 -0.003545836105117 -10.186747852048498 -0.000000299818529 -0.095508862839851 -9.944938429023633 -0.000000297817403 0.042518401584001 -10.067351571826354 -0.000000412303224 0.250472140614388 -10.018455873554259 0.000000071104714 0.076245753348744 -9.949433706667762 0.000000035307964 -0.060756609685864 -10.052777677333481 -0.000000094476203 -0.000278717736307 -10.105224271705165 0.0000001023997 -0.093657696346361 -10.037187981931742 0.000000006688146 -0.019498204951326 -9.949987587345726 0.000000271992681 0.079344078847072 -9.983410399881482 -0.000000193525198 0.04299744755278 -9.955815406784042 0.000000315622327 -0.005169354399919 -10.210469118156068 -0.000000293386702 -0.108889398757087 -9.836577321025548 -0.000000103106251 0.065514718682458 -10.14542590124913 -0.000000045641413 -0.078948776430977 -9.970454047281198 0.000000075301284 -0.089862516184294 -10.139189766378516 -0.000000534617562 -0.026910195286065 -10.064877695747439 0.000000158765943 -0.011948108150568 -9.929704111589327 -0.000000354304655 0.055566256875124 -10.15776065106834 -0.000000257526738 0.072150077611792 -9.879778916879939 0.000000232835796 -0.007412584447346 -10.125920022793203 -0.000000077739781 0.085262897974334 -9.967872655621106 0.000000374819955 0.004926315725241 -10.154393470029321 -0.000000144237837 0.15528272160325 -10.195827359348607 -0.00000003283443 0.115539024424543 -10.036930828501839 0.000000480437165 -0.114436910079358 -10.077993286304885 -0.000000037868477 0.135308328254595 -9.91829406717806 -0.000000100381288 0.070144056666449 -9.932254540739269 0.000000053631467 -0.034446180597674 -10.064616461517499 -0.000000125331715 0.068127915114079 -9.959044319694996 0.00000018417536 -0.061734647073712 -10.006890000868761 0.000000113706995 -0.146387289733667 -10.013708052095023 -0.000000537059631 -0.081190335232961 -10.023431800936553 -0.000000279439571 -0.126465780527207 -9.90065309367537 -0.000000384167883 0.028344157831528 -10.027104646680337 -0.000000519855002 -0.018456041483301 -9.859583697711082 0.000000267988627 0.187105876638997 -10.046470193515292 0.000000138873892 -0.097414788389916 -9.977319885363864 -0.000000250398116 0.248522058157935 -9.905119608505892 0.000000372365098 0.117503403075447 -10.172203824020881 0.000000284403438 -0.034545702386571 -9.933500301514854 -0.000000049132979 -0.010130319635831 -10.128069906138679 0.000000429617441 0.236517639897201 -9.944513907344483 -0.000000131731978 0.168095415326933 -9.862852045554879 0.000000326225675 -0.054289474187635 -9.939654342983557 0.000000220416988 -0.013510125819712 -10.151362240725083 0.000000665868502 0.078700145116725 -10.060408049477573 -0.000000447566811 -0.038678857994038 -9.907675070265169 -0.000000122395094 -0.051631295737395 -9.893505277000402 0.000000248360124 0.010150312142458 -10.026583675564561 0.000000347280677 -0.071357383103103 -9.916935495072105 0.000000420417879 0.041451140650359 -9.892230244919114 0.000000046577057 -0.069714826212604 -10.102836983105563 0.00000002238157 -0.123099289713267 -9.954018990145668 -0.000000087394933 -0.071097631225098 -9.967410889040272 -0.000000468760912 0.094669616677783 -9.931777351957258 0.000000156493169 -0.125620860602578 -10.039632625341048 0.000000097340472 -0.176189072918086 -10.07137190743653 -0.000000138794326 -0.128756576636524 -10.051182828371655 0.000000152533179 0.002916287680429 -10.120410285022277 0.000000056547536 -0.005076846017049 -10.030225658073249 0.00000019703487 -0.157414030366121 -10.146442458199136 -0.000000057788526 -0.097085649131187 -9.892020886835773 0.000000158161822 -0.136707962955898 -9.919872452927962 0.000000300397531 0.001619937434449 -9.919243995014773 -0.000000291698869 0.050157325371992 -9.901780880263756 0.000000338313231 0.104364121759252 -10.110901543355165 -0.000000083794745 0.003186392245349 -9.875246033800114 -0.000000004434805 0.135747558858449 -9.846753584366395 -0.000000329053752 0.054899509608143 -10.248641610249459 0.000000542551766 -0.077997006549549 -9.862600108223798 -0.000000554136451 0.111296729666562 -9.939538677242931 0.000000043843581 -0.033733645561896 -9.981953349164725 0.000000277110213 -0.110085114051059 -9.955331377935241 -0.00000020777778 0.184234867340188 -9.940000386557898 0.000000408643681 -0.079689162365105 -10.111569170580038 0.000000202694599 0.048168323112025 -9.904788404940074 0.00000011146451 -0.104296248950815 -10.051897471250991 0.008534788179454 0.035025087895632 -9.920692208831477 0.008533537098983 0.108200289198409 -10.131808004433998 0.008533800193208 0.012708256868084 -10.010408677118955 0.00853119454236 -0.122819919389014 -9.998698023716592 0.008530930853555 0.095534325708556 -9.949489787361186 0.008518508319674 -0.079954141831852 -9.843279568439542 0.008518079702385 0.107886377467983 -9.989852808114858 0.008410938400592 0.010524213576403 -9.977222542383251 0.008410913994964 0.008679482947899 -9.926775808376778 0.008534675406425 -0.031718530129134 -9.701925319733622 0.008533605318218 0.124330943842901 -9.962580475956365 0.008533684775003 0.046243588842872 -10.018687040885004 0.008530244479352 0.099532192605811 -9.976205267823584 0.008529964548698 0.068344423234097 -9.871703178561232 0.00851400521533 0.063095483778607 -9.9317818087302 0.008513584264688 -0.148657004394294 -9.93843488424586 0.008390377495386 -0.011435289122037 -10.122642326644261 0.00839029319102 0.031466532060053 -9.961114423003643 0.008534106409939 0.082706358623508 -9.963559933587623 0.008533213995026 -0.138101624113908 -9.823258318372634 0.008533757449272 0.113581197682665 -9.829443468265955 0.008529890430452 0.012841705488314 -10.116848463310761 0.008529692599185 0.007865691634445 -10.046400809595186 0.008513707819271 0.189862134993032 -9.982312610018061 0.008513832704835 0.127673009114635 -9.997972159732072 0.008390446733436 -0.100670919373937 -9.998920078602961 0.008390471664411 0.001445861400007 -10.063786533496579 0.008532309948402 0.118856219020274 -10.043650428196269 0.008531825799628 0.209693742318171 -10.072919550317318 0.008531447420465 -0.108368679144675 -10.026604444782109 0.008525831789326 -0.147558578039743 -10.054192130564701 0.008525450458079 0.028851568200797 -9.87270124314901 0.008488112905789 0.212774536679994 -10.136039613829533 0.008488567041932 -0.001481751096581 -9.985441734765176 0.008063138884275 0.169746495099004 -9.878212999411419 0.008063150774132 -0.068553161225543 -10.069263385004939 0.008532426099709 0.020461356202569 -9.933576477934022 0.008531338502748 0.168914409690088 -10.026342280656211 0.008531894409838 -0.020026433281604 -9.885323920151132 0.008525639075978 0.033520923627753 -9.977462624561378 0.008525682841952 -0.200968786484482 -9.957323631403737 0.008488381827306 -0.149344872772012 -10.010014269243088 0.00848807181792 0.064615614117581 -10.008862922378018 0.008063354955032 -0.132283066491917 -10.013583216146509 0.008063324792619 0.073401580170432 -9.930142091849193 0.00852711238021 0.041245062178478 -10.024792582541336 0.008524696692194 -0.168162069261038 -10.09752954747208 0.008524829001533 0.200331350901276 -9.820786437993966 0.00851123570185 0.046787516498924 -10.118469157763768 0.008510730541099 -0.036852166830722 -10.224041905296884 0.00841239684903 0.021983182557049 -9.933208952019436 0.008412571929661 -0.130426163620205 -9.951943516178261 0.008527279794305 -0.050482836885179 -10.120424545376592 0.00852501556972 0.174019468839064 -9.889911230066348 0.008525099840583 0.167745825959086 -9.909025282571243 0.008511117207632 -0.067195920692908 -9.990258492737016 0.008510820003343 0.040114822450148 -10.15680179806836 0.008412353371507 0.053836434305219 -9.85920588557771 0.008412206035383 -0.12733596637762 -10.020172136331178 0.008506355143109 -0.006595349782328 -9.855229461544843 0.0084990437495 0.009076360667618 -9.967550291949776 0.008499363556176 -0.082049042975951 -10.050061595591441 0.008447195590019 0.084596522499587 -10.028387376330699 0.008446889540258 0.041343981416587 -9.977709342480308 0.00799821517927 -0.019724204856094 -10.172145600554282 0.007997806421228 0.096978140750506 -9.96750046489824 0.008506240172433 0.020191099635973 -9.962031212825222 0.008499419782513 -0.084171338903614 -10.058254538360345 0.008499258682354 -0.048355195262767 -10.046958295098797 0.008446647529368 0.045835188920721 -10.110430812543768 0.008446832132577 -0.044351033057976 -10.037003346920113 0.007997785507267 -0.053123913073754 -9.78549143283734 0.007998289052541 0.013892866636695 -10.066378994810869 0.008361547807466 -0.252478669390931 -10.008650015535967 0.008338125322906 -0.057434892525498 -10.174722829983661 0.008337451968757 -0.022221931604706 -9.971527794443279 0.007961580659783 0.024280578392769 -10.131522908234619 0.007961415286823 -0.04525028015835 -10.007177017135554 0.008361021379793 0.075874458014842 -9.942094913900513 0.008337678514423 -0.050093390591493 -9.996977312112058 0.008337629556124 -0.105199121159614 -9.941730942982073 0.0079616015254 0.125089077054343 -10.103619885643646 0.007961662499137 0.080227963484342 -9.96977008343702 0.001026944858179 -0.014435399359104 -10.040989234520017 0.001028163475462 0.061005498545465 -9.930601368097783 0.001027985616004 0.116000749081862 -9.8938637417055 0.001035781327429 0.06172251981259 -10.028517474833155 0.00103637923558 0.10307189224637 -10.082777852884815 0.001127784041441 0.051044899006227 -10.051019468093921 0.001127938666786 0.012160256755315 -10.062517620892018 0.00325335152574 -0.039352441882564 -10.053098009462158 0.003253799677908 0.012722732148475 -10.069176133094258 0.006134566343774 -0.021344573177349 -10.161459884305302 0.006135123359862 0.031266269192945 -10.119010228074023 0.001027289877113 0.253991785474409 -10.071028092890248 0.001028168440016 0.081316171747534 -9.747808569359288 0.001028946920821 0.074084476454444 -10.088820886831357 0.001038628840902 -0.136191268610924 -9.922797202175296 0.001039558540535 0.002692266509247 -10.035287177835427 0.001145777434524 0.056028091890527 -10.019500818990664 0.001146244431897 -0.144965501229479 -9.991777936683476 0.003291849873326 -0.083713550317126 -10.159737130620668 0.003292329464746 0.136441994793456 -9.895788225211728 0.006149653365471 -0.041353149341899 -10.161349990764553 0.006150040278573 0.123784456381319 -10.101792373042072 0.001026848407668 -0.075464192719843 -9.931493151692703 0.001028609056595 -0.112485679173491 -9.914606480369255 0.001028904731523 0.107172445279481 -9.969418743386559 0.001039504613367 -0.122962427620524 -9.884233884358697 0.00103931185759 0.009286894091205 -9.880773215060525 0.001146296259851 -0.085732924328295 -10.083419525053301 0.001145984321073 -0.079200238451592 -10.000226463568445 0.003291444050029 0.08824438322455 -9.971929892449667 0.003291882696795 0.012994026558299 -9.874418498826353 0.006149921616306 -0.138459259576909 -10.118444269158202 0.006149793221324 -0.019876389590855 -10.000507842037141 0.001027608470108 -0.102873771022919 -9.896598217686549 0.001030696799405 0.133435526642261 -9.996887963317796 0.001030650980511 -0.006352507108172 -10.081656666757935 0.001060647019584 -0.1384046206609 -10.007202078897919 0.00106028131783 -0.02740656029802 -10.01727222963914 0.001462221952116 0.15164658826347 -9.919205305716062 0.001461963748791 0.009203254306556 -10.015626688087409 0.004742827423683 -0.018289371858849 -9.833837353917371 0.004742797807415 0.05197404284665 -9.84741841429363 0.00643250969394 0.015006162459798 -9.966998692469808 0.006432346610041 -0.015271755566008 -9.98910545843408 0.00102776199622 -0.079784529054261 -10.092435585304713 0.001030691278276 0.094855092997802 -10.085599619202428 0.001030132791576 0.021830701057737 -10.033769367624977 0.001060477001582 -0.105979195449236 -9.871094385128632 0.001060688103351 -0.14977604610033 -10.227388027405365 0.001462056025012 0.115251895209751 -10.130447818766559 0.001462362110947 0.030173227776288 -10.103827009276207 0.004742764328699 -0.067800944871071 -10.01630446453837 0.004743374339457 -0.087373000725984 -9.967017081419892 0.006432519250892 0.039790937619042 -10.131371943460925 0.006432848353043 0.204224727377235 -9.9649448895234 0.00103325221246 -0.015292853100659 -9.964098776233524 0.001040385267993 0.03183576733816 -10.044915915494633 0.001040319058377 -0.056374360643966 -9.998432870762686 0.001122024837258 -0.046427695098425 -10.132277729007514 0.001122037785621 -0.01762159357938 -10.123992962161534 0.002951916805339 -0.180205122765027 -10.059569759452119 0.002951956890188 -0.109880865348611 -10.015267929781649 0.004704563616225 0.100655045796706 -9.928280956777632 0.004704342876938 0.011069778149245 -10.131256749886489 0.00103277468045 -0.167494106085098 -9.856149332795807 0.001040191529316 0.096501489376161 -9.860394770632823 0.001040365037762 0.098393596306027 -10.233005475276531 0.001122211980444 0.124725322094171 -9.969737753833108 0.00112231679647 0.125161935453802 -10.056600139005463 0.002952840682483 -0.022905766121298 -10.077958403551181 0.002952675916039 0.125500706282389 -10.049069189549819 0.004704603661112 0.006099809843968 -9.991028736318889 0.004704383462718 0.027841276063615 -9.973269986805526 0.001111939423617 0.139068002191515 -9.912181135241726 0.001132396399096 0.029814683501747 -9.766847811570337 0.001132633475542 0.00748329808209 -9.729046201088542 0.001501718845211 0.143430202089563 -9.943083970030729 0.001501904641913 -0.068773602590493 -9.944905481316894 0.004681742236361 0.066715140517187 -9.947568413417152 0.004682008907096 -0.104026629999904 -9.951843860248122 0.006008941932604 -0.033036330927804 -10.060635542539535 0.006008965994552 -0.015105757996094 -10.17527241270218 0.001111551048323 -0.090170111878729 -10.064097458048348 0.001132633540772 0.015731035221052 -9.956310100864183 0.001133258251131 -0.15230464541867 -9.996910619050944 0.00150243755315 -0.075218661027642 -10.042903181616543 0.001501804756012 0.087360937962123 -9.805985083585051 0.004682412577924 0.051107259567 -10.029619841049291 0.004681674582224 0.148180145894673 -9.896874228215573 0.006008916421925 0.045306599034641 -9.952785264712318 0.006009198892581 0.131275470789626 -9.825226847879243 0.003120240715517 0.069244835296786 -9.924917076086013 0.003157602240303 -0.023685926389026 -10.040091217177554 0.00315744866766 -0.113906396418056 -10.051232556529845 0.00460796100139 -0.102120620236379 -10.204239625330317 0.004608187477145 0.0232896304362 -10.079626976627107 0.004531211488053 -0.04287042096132 -9.914307997006564 0.004531203066017 0.026437826051947 -10.085873223110559 0.00311950944445 0.078415070728729 -9.938751805375787 0.003157391083319 -0.123474703236234 -10.166385616505783 0.003157793225826 -0.065292627013944 -10.153993637128554 0.004607939060666 0.020213107873044 -10.064244257591602 0.004607875300712 0.093845765370168 -10.019466618928387 0.004531010082618 0.080717563498952 -9.9606735094155 0.004530972103514 -0.256150829323142 -10.178609441976642 0.00379233604018 -0.081612286094613 -10.097608999456581 0.003807294421597 -0.160745889617027 -9.953660983993712 0.00380689382532 -0.046214538342411 -10.072790051912191 0.004068678464726 0.157919589655395 -10.012365188375396 0.004068446677857 0.001952157348465 -10.139132109624214 0.003792083116814 -0.049897104933268 -10.08908447680208 0.003807004023036 -0.052554533031985 -9.910775151655637 0.00380661662684 0.115047393325673 -9.867371204969013 0.004068606452 0.051419935623052 -9.797052256338869 0.004068959554353 -0.013318839044066 -9.871930516492682 0.000159287321616 0.059552018622313 -9.967842294553707 0.000161413992892 -0.039340561452505 -10.127269644896231 0.000161477131397 0.025867751324978 -10.026470009559544 0.00016900178772 0.117784895528991 -10.119444486318507 0.000168998413862 -0.210973462945817 -9.955219414115691 0.0002132921582 -0.064525060164549 -9.788072527555963 0.000213232715015 0.177850316945399 -10.033172065032479 0.000484544022031 0.001511684451128 -10.017696735198466 0.000484829581738 -0.061204885126059 -10.084787386133348 0.002926615348737 0.183248527641674 -10.049783104279129 0.002926669840021 -0.121651641949946 -9.937670010637085 0.003934514204714 -0.118254964481431 -10.055145135290337 0.003934343286208 0.052727961232686 -10.270392462665528 0.000159149014188 -0.014587736562531 -10.041921118811995 0.00016159535039 0.017925585766234 -10.181944685131699 0.000160933145922 -0.109560261691755 -10.048244156749542 0.000171433418835 -0.019570161150961 -9.886543227413831 0.000172153698997 0.066957035000018 -9.895409033991704 0.000222979317187 -0.032031135206082 -10.101099804623237 0.000223937239198 -0.016951130402521 -10.091609345644326 0.000513788803243 0.008755549613225 -9.958391144949857 0.000513304542773 -0.045696260449069 -9.962726750414696 0.00297070368879 -0.160988698402237 -10.086627410374607 0.002970393323236 -0.240222897312543 -9.833004040916752 0.003951178638456 -0.051289823992555 -10.000713541843728 0.003951176151262 -0.061447587868993 -10.054443737183522 0.000160136259685 0.128966668392367 -9.943137030703918 0.000161657011322 -0.078467224455839 -10.007075059925173 0.000161267834644 -0.232598104396229 -10.102423746939722 0.000171573807743 0.034610202984403 -9.88596556977544 0.000171549748868 0.029321892880801 -10.137923841247105 0.000224118849114 0.104297221476814 -9.940535593924572 0.000223326316902 -0.050424473581189 -10.235333483864745 0.000514055479998 -0.019432971919035 -9.940221806614904 0.00051387030099 0.000469886470891 -10.022537195060426 0.002970930275765 -0.087439942803606 -10.056584679235318 0.002970368908203 0.074165887160091 -10.146633522944958 0.003950787904251 0.131235471773465 -10.080115686925035 0.003950917034646 0.067449168915893 -10.038950308718281 0.000161897586382 0.057753577991047 -9.808035347168127 0.000163732304361 0.04438243522201 -9.987947243025243 0.000164145385144 0.195457448623334 -10.095275359898519 0.000182526430998 -0.020518920110121 -9.936011444803203 0.000183435432226 -0.046739511268742 -10.027589441097998 0.000286584649616 0.091491335136976 -10.063375037643063 0.000286019966796 -0.081346079548948 -9.941664926854331 0.000912098487211 0.032779772583125 -9.933756311981931 0.000912024394134 -0.11060666896197 -9.956383356167606 0.00444634320353 0.036507655967575 -9.916099195984305 0.004446638610169 -0.173509889386964 -9.9711620719601