<?xml version="1.0" encoding="UTF-8" standalone="no" ?>
<VTKFile byte_order="LittleEndian" type="UnstructuredGrid" version="0.1">

  <UnstructuredGrid>
    <Piece NumberOfCells="0" NumberOfPoints="801">
      <PointData>
        <DataArray Name="mass" NumberOfComponents="1" format="ascii" type="Float32">1 1 1 1 1 1 1 1 1 1 1 1 1 1 1 1 1 1 1 1 1 1 1 1 1 1 1 1 1 1 1 1 1 1 1 1 1 1 1 1 1 1 1 1 1 1 1 1 1 1 1 1 1 1 1 1 1 1 1 1 1 1 1 1 1 1 1 1 1 1 1 1 1 1 1 1 1 1 1 1 1 1 1 1 1 1 1 1 1 1 1 1 1 1 1 1 1 1 1 1 1 1 1 1 1 1 1 1 1 1 1 1 1 1 1 1 1 1 1 1 1 1 1 1 1 1 1 1 1 1 1 1 1 1 1 1 1 1 1 1 1 1 1 1 1 1 1 1 1 1 1 1 1 1 1 1 1 1 1 1 1 1 1 1 1 1 1 1 1 1 1 1 1 1 1 1 1 1 1 1 1 1 1 1 1 1 1 1 1 1 1 1 1 1 1 1 1 1 1 1 1 1 1 1 1 1 1 1 1 1 1 1 1 1 1 1 1 1 1 1 1 1 1 1 1 1 1 1 1 1 1 1 1 1 1 1 1 1 1 1 1 1 1 1 1 1 1 1 1 1 1 1 1 1 1 1 1 1 1 1 1 1 1 1 1 1 1 1 1 1 1 1 1 1 1 1 1 1 1 1 1 1 1 1 1 1 1 1 1 1 1 1 1 1 1 1 1 1 1 1 1 1 1 1 1 1 1 1 1 1 1 1 1 1 1 1 1 1 1 1 1 1 1 1 1 1 1 1 1 1 1 1 1 1 1 1 1 1 1 1 1 1 1 1 1 1 1 1 1 1 1 1 1 1 1 1 1 1 1 1 1 1 1 1 1 1 1 1 1 1 1 1 1 1 1 1 1 1 1 1 1 1 1 1 1 1 1 1 1 1 1 1 1 1 1 1 1 1 1 1 1 1 1 1 1 1 1 1 1 1 1 1 1 1 1 1 1 1 1 1 1 1 1 1 1 1 1 1 1 1 1 1 1 1 1 1 1 1 1 1 1 1 1 1 1 1 1 1 1 1 1 1 1 1 1 1 1 1 1 1 1 1 1 1 1 1 1 1 1 1 1 1 1 1 1 1 1 1 1 1 1 1 1 1 1 1 1 1 1 1 1 1 1 1 1 1 1 1 1 1 1 1 1 1 1 1 1 1 1 1 1 1 1 1 1 1 1 1 1 1 1 1 1 1 1 1 1 1 1 1 1 1 1 1 1 1 1 1 1 1 1 1 1 1 1 1 1 1 1 1 1 1 1 1 1 1 1 1 1 1 1 1 1 1 1 1 1 1 1 1 1 1 1 1 1 1 1 1 1 1 1 1 1 1 1 1 1 1 1 1 1 1 1 1 1 1 1 1 1 1 1 1 1 1 1 1 1 1 1 1 1 1 1 1 1 1 1 1 1 1 1 1 1 1 1 1 1 1 1 1 1 1 1 1 1 1 1 1 1 1 1 1 1 1 1 1 1 1 1 1 1 1 1 1 1 1 1 1 1 1 1 1 1 1 1 1 1 1 1 1 1 1 1 1 1 1 1 1 1 1 1 1 1 1 1 1 1 1 1 1 1 1 1 1 1 1 1 1 1 1 1 1 1 1 1 1 1 1 1 1 1 1 1 1 1 1 1 1 1 1 1 1 1 1 1 1 1 1 1 1 1 1 1 1 1 1 1 1 1 1 1 1 1 1 1 1 1 1 1 1 1 1 1 1 1 1 1 1 1 1 1 1 1 1 1 1 1 1 1 1 1 1 1 1 1 1 1 1 1 1 1 1 1 1 1 1 1 1 1 1 1 1 1 1 1 1 1 1 1 1 1</DataArray>
        <DataArray Name="velocity" NumberOfComponents="3" format="ascii" type="Float32">0.111303128959369 -10.031314742378997 0.000113511376292 0.060813757512392 -9.937488335734256 0.000023776132478 -0.07122298846711 -9.884597319323898 -0.000031849468229 -0.171944754992728 -9.958184228518983 -0.000081176745206 -0.040122899997578 -9.774517371856076 -0.000163688394192 -0.227349419821013 -9.977134330431065 -0.000259962334054 0.086665036222613 -9.861501597194398 0.000053201734942 -0.103312518543031 -9.970060099250889 -0.000090923552995 -0.035911811344353 -9.967366451447614 -0.000136998672012 -0.11145593068811 -10.032916383749891 -0.000112449192872 0.004619833144312 -9.877884760521333 -0.000180995781058 0.084525259131208 -10.148905006920847 0.000065517026762 0.222521023190666 -9.958922361692688 0.000157039371989 -0.000663001822697 -9.9538915463071 -0.000027702591367 -0.075050338964276 -9.902805188577537 -0.000100655671593 0.015421716104342 -9.848958196289084 -0.000007522269918 -0.022810007277687 -9.912590284098897 -0.000020119294949 -0.132944197903484 -10.085392427344777 -0.0001488563962 0.005364087019103 -10.083361717579775 -0.000066994197843 -0.106203811768341 -9.947203771508004 -0.000004931635303 0.078726752438419 -10.030462109087662 0.000051712637379 -0.006909406321456 -10.067587911317286 0.000070331888319 -0.170632885142728 -9.969349138522411 -0.000196216771134 -0.064125188209989 -9.871468548258202 -0.000028588116085 0.015635623591774 -9.795708326062895 0.000099560368816 0.003852736526895 -10.053509157071776 -0.000002794403822 -0.010621272978496 -9.924275046389067 -0.000103900876219 0.031951315700393 -9.992768438533409 0.000041976330404 -0.089232436143378 -9.897970918256506 -0.000172813320676 0.131814235761667 -10.153800212285537 0.000138192908207 0.050601999209213 -10.069011341761819 0.0000636490801 -0.016015217256313 -9.901653274321809 -0.000115740266128 0.097479135902214 -10.045950487575109 0.000110652487121 -0.024315268206246 -9.964274701893475 -0.000103745602257 -0.107468036974604 -9.868941923622053 -0.000098535504564 0.052895874305289 -9.988557307539448 0.000011709521916 0.039785563865999 -9.908492450934141 0.000125500861204 -0.011143629209986 -9.923200535717038 -0.000058932196004 -0.039471946561398 -9.88157161015439 0.000011992814145 0.02649828758942 -9.942682618514187 0.000060308257995 -0.009246008120766 -10.14623011576538 -0.000014035551653 0.194221980476243 -10.091348670994584 0.000221710324383 0.079940194331928 -10.146432610225368 -0.000003993648105 0.101135859974708 -10.068332035576489 -0.000010333793457 -0.029036499444276 -10.15072228843173 -0.000060474122722 -0.083432930920403 -10.056967712171499 -0.000045245255185 0.141803316378275 -10.207501832053991 0.000089983877946 -0.002744827975399 -9.844305201122621 0.000095983990652 0.153915629744956 -10.098872528605861 0.000169324781071 0.134010104886199 -10.068476624035275 0.000190852426797 -0.076368715398857 -10.09743101987795 -0.000020694331357 0.049401215591677 -10.146127005882587 0.000016690418773 -0.070478836272275 -9.954856264721217 -0.000123809504849 -0.035043937447151 -9.97508344324331 0.000022503865593 -0.069420995878861 -9.950834790958258 -0.00006129709583 -0.066228821479243 -9.995583929498055 -0.000033990966987 -0.067290014313309 -10.052284923988649 -0.000100977021891 0.083485385941256 -9.934196655621299 0.00013254270571 0.007562636774482 -9.985901241740958 -0.000025045006058 0.068863576741667 -9.866456211238182 0.000137243405398 0.00386821837094 -10.099248460596396 -0.000086668402364 -0.01598945576813 -9.849899201741614 -0.000129044328301 0.043811519140855 -9.853189883354851 -0.000017157771482 0.03593641633215 -10.116188283410855 0.00003575727997 -0.111999818285898 -10.034865717959381 -0.000087736628196 -0.205503833732679 -9.927767681902605 -0.000103484581828 0.223238752098328 -10.128095870525206 0.000263941139779 0.029833980915024 -10.05969068312009 0.000111189289065 0.019238130221228 -9.843966131789278 -0.000038957144307 0.020431390284626 -9.903299532838165 0.000075545445787 0.135527172191167 -9.929341838524159 0.000207524907253 0.007012054328285 -9.992272599060902 0.000052398378014 0.209660363552578 -10.004031888858737 0.000278110648202 -0.03490403964492 -9.968241577540859 -0.000022951271296 0.074682676765845 -10.123881974260231 0.000020049475393 0.061650259959804 -10.126545996210657 0.000066983649618 0.115477990245767 -10.103994786553553 0.000133777448832 -0.072276071580245 -10.111151341477836 -0.000109336273876 -0.064497628808984 -9.981090236647155 -0.000075254690735 -0.119383380506285 -9.937390564914105 -0.000139656206232 0.001072477392309 -9.953383769042439 -0.000031202351627 -0.175194198924195 -9.96036051000881 -0.000216605464776 0.033776985860079 -10.057618307096391 -0.00004932039815 -0.075474948821768 -9.759759153356926 -0.000024288990935 0.066604902163754 -10.006493948939177 0.000096367559535 -0.04372744561932 -9.907108548652964 -0.000039179248083 -0.169047816143443 -9.895623972211206 -0.000164805730183 0.06237452624096 -10.050448922452524 0.000052837543821 0.203410851004817 -10.018360676958658 0.000262611356773 -0.017825733885773 -10.195275837053735 0.000035335605375 0.057797681534425 -10.075997412816724 0.000127453410799 0.011627073070617 -10.064103353910921 0.000021817933736 -0.074113281749773 -9.81619244270559 -0.000099825345514 0.141510598231319 -9.890319109183856 0.000162193634465 -0.052126808438665 -10.104267058527789 -0.000177053780784 0.136294742935757 -9.844884342078132 0.000178003657567 0.119391255616331 -10.087566838589403 0.000057122215658 0.064945370350449 -10.078036475840104 -0.000003023699503 0.053129733355232 -9.979515701621359 0.000035381138103 0.079577370561098 -10.123100873802874 0.000090236688494 0.006763960992101 -10.085067309797962 -0.000088537250758 -0.035967164861862 -9.946877616993433 -0.00012269102644 0.027937810130391 -10.058181116262096 0.000020808746549 -0.082694071593319 -10.029552441552608 -0.000181477376723 0.151554720853835 -9.82231382983478 0.00010512357575 0.097556573224145 -10.122162795815976 0.000078407029166 0.095740752751313 -10.069761207590938 0.000113255200126 -0.056619120230064 -10.102335119323312 -0.000053085163103 0.098428196223032 -10.049303033870959 0.00009782060255 -0.131849325886527 -10.026979772865884 -0.000154438125161 0.102622474318998 -9.923867440677547 0.000098280831167 -0.074023103536963 -9.965412598080674 -0.000081732315211 -0.056124289718256 -9.869595331289812 0.000014545578896 0.039876818690665 -10.0306450419687 -0.000015633477571 0.142389200629513 -9.972204929445587 0.000281504818104 -0.028166699757519 -9.946168690590628 0.000028465749953 -0.006623161258903 -9.732661220048 0.000085015750376 -0.075846073504989 -10.047166443282153 -0.000056378026809 0.112440258131696 -10.001777138723421 0.000150159375757 -0.012316262129772 -9.883980543882627 0.000018577738663 -0.003596570141577 -10.189055137429259 0.00001003043198 -0.095629193543929 -9.938803902874396 -0.00008237678524 0.042489737023818 -10.087356812053958 0.000029823170666 0.250558104014048 -9.998968548964553 0.000219296860907 0.076188560644601 -9.952788096572924 0.00001691188049 -0.060955785642428 -10.051060102830624 -0.00009308586527 -0.000459333885377 -10.101403567106088 -0.000059342494979 -0.09412493061078 -10.03576222471661 -0.000057592820786 -0.019963290978666 -9.953006658921929 -0.000059415994228 0.076543641076556 -9.98092946883386 0.000064527454705 0.040176858792255 -9.960335430986406 0.0000430393883 -0.004999579117638 -10.206623900950412 0.000018767462255 -0.108947879805248 -9.839846434306294 -0.000283775156993 0.065761986766395 -10.146198013217093 0.000120822934109 -0.0789520265364 -9.969910244799363 -0.000236395518914 -0.089712440725626 -10.136644215308536 -0.000039559643388 -0.02678213314846 -10.064760537257026 -0.000102289699795 -0.011772665805881 -9.931835936230691 -0.000047784022345 0.056061949683163 -10.155722375095136 0.000011063584353 0.072755119083512 -9.882025913788929 0.000172815831624 -0.004514853009973 -10.12345892223088 -0.00002521832366 0.088321882591461 -9.972882784944868 0.000198967204237 0.008823156192066 -10.144362724186362 -0.000047350509138 0.159402094126752 -10.199570500857217 0.000267100727808 0.115441653854823 -10.03679124925185 0.000088597197314 -0.114652796586235 -10.077738753401576 -0.000076094465701 0.135215825727256 -9.921651623936663 0.000089075018627 0.070043609944961 -9.934546400038672 0.000091164031599 -0.034637689869225 -10.06190555050682 -0.000037926684171 0.067966485224308 -9.959928864462787 0.000065687087366 -0.062069919770986 -10.007289063439275 -0.000174123126291 -0.146937924520236 -10.01732498272731 -0.000097725446867 -0.081730618008843 -10.017591295652483 -0.000100958147749 -0.129479317464314 -9.917388261683302 -0.000135493572871 0.025458416001134 -10.011726130644353 0.000032519440277 -0.022454431251102 -9.855483494083012 -0.000078061807469 0.183297225253208 -10.050269131889488 0.000170408440945 -0.096513954642676 -9.978153177904263 -0.000187058306905 0.24973415940378 -9.907380450190592 0.000230640212426 0.118575598047646 -10.169215218103121 0.000042660792853 -0.033587147620267 -9.933220439409665 -0.000120485746742 -0.009117163202443 -10.125261686742416 -0.000035788282666 0.237823936786284 -9.94402145134236 0.000236429407419 0.169335257340818 -9.870183067589883 0.000160816516009 -0.051145270163594 -9.93839415179464 -0.000141761674383 -0.010195465993652 -10.147488812049541 0.000077433367609 0.084878615132772 -10.050731270829086 0.000059238705037 -0.03259564047284 -9.91831338926397 -0.000066128600106 -0.052844957371954 -9.895890560571807 -0.000236099276292 0.009129093809396 -10.023411215766595 0.000019233135091 -0.072553547188639 -9.919024847537434 -0.000228357172971 0.040485815586588 -9.894684651530465 0.000112973996888 -0.070843370163248 -10.098781449443186 -0.00013394969508 -0.1243455846275 -9.952630173247272 -0.0001659245452 -0.072270045081535 -9.970338775793991 -0.000056029989564 0.091481402806338 -9.930962732356374 0.00007625315492 -0.128945452677411 -10.041786774932357 -0.000107376527859 -0.182405634787642 -10.0641919867389 -0.000127838749632 -0.135038615296711 -10.056900447933613 -0.000203549043288 0.01150997050271 -10.119905942022069 0.000089006730286 0.003316039737667 -10.029468224983091 -0.000147592057174 -0.149060146959293 -10.142490922067013 -0.000224843963895 -0.088742632595127 -9.900376194593536 -0.00020472829847 -0.128490276438634 -9.916330042495533 -0.000373833779341 0.009865646106116 -9.936897813292125 -0.000268765004184 0.05837570890115 -9.884098551432711 -0.000305985316312 0.112854747216503 -10.100921166333322 0.000108699550409 0.011671988977178 -9.886649220741011 0.000090916391108 0.127320389205404 -9.850373779801005 0.000147863495392 0.046381819395372 -10.239949476621106 0.000025040479561 -0.08662662935714 -9.863890329810641 -0.000148335738551 0.102849989467295 -9.943554230835675 0.000117867735347 -0.042300752306388 -9.979987371105027 -0.000059474250169 -0.118691875261804 -9.956608445013883 -0.000137863126884 0.175915341128384 -9.940604410941768 0.000282116877831 -0.088203905170963 -10.105172995376382 -0.00013300454169 0.039802367040043 -9.909059570652056 0.000069161986901 -0.104362466431305 -10.05365777850826 -0.000076251180013 0.035036891938679 -9.921645259544576 0.00001592893291 0.108264903381841 -10.129109498265949 0.000095381295417 0.012691197185762 -10.008451429808034 -0.000015008419907 -0.122978670333797 -9.998486745371531 -0.000213890048941 0.095599948405313 -9.95023283156811 0.000093809680613 -0.080031472537719 -9.847515691634062 -0.000101109937636 0.107998311384408 -9.98489857876169 0.00014435871824 0.010509046245106 -9.975715122451044 -0.000035070029148 0.008692362307853 -9.92797852365474 -0.00000720560862 -0.031697945471049 -9.70955489426396 0.000028815090633 0.124400164529094 -9.962265855257698 0.000090782348664 0.046366567062018 -10.012795193461567 0.000131742439038 0.099685684712378 -9.975434885989412 0.000155765576258 0.068569611482393 -9.874484337116519 0.000142796632266 0.063311358833325 -9.934677233594762 0.000134679204728 -0.14828706793819 -9.940513119993486 0.000086539841452 -0.011018284981633 -10.115512496514244 0.000151405415666 0.031812494858152 -9.979246582390514 0.000378444454942 0.083047883048325 -9.947182209568451 0.000380276650959 -0.138274503080385 -9.826999642726456 -0.000217026449077 0.113542815406192 -9.83206352330717 -0.000024875212139 0.01288081517881 -10.111540639169464 0.000072579979014 0.007668452944853 -10.042400148577887 -0.000130918716798 0.18985452593498 -9.984838572372789 0.000122944085248 0.12747537176529 -9.995791136128522 0.000097339520062 -0.101097994965434 -10.002953573558337 -0.000210871818071 0.001378172537448 -10.063005130191055 -0.000114901461969 0.118923186654939 -10.042864596524812 0.000051420917033 0.209909827912697 -10.072585969046896 0.000250051977421 -0.108388485222543 -10.024663516109793 -0.000135035295109 -0.147617612040327 -10.055721432802724 -0.000197475579204 0.030507480994326 -9.874048009168286 0.000040816292328 0.214511210135367 -10.133822891743741 0.000154057477771 -0.000864119027235 -9.981093816199175 -0.000022204349181 0.17048338742233 -9.886116353293364 0.000164101567626 -0.068619995260188 -10.067586934094992 -0.000061690873221 0.020467193020906 -9.932282277706705 0.00005182296579 0.169034705512067 -10.026284495955363 0.000207887140603 -0.020080383796788 -9.886693407443655 0.000062615640376 0.033463604131615 -9.978673333795454 0.000048532502062 -0.20276205762254 -9.955080938761476 -0.000224670742378 -0.151009849390378 -10.011647771361552 -0.000054230953522 0.063993178838357 -10.00348380732941 0.000034001805413 -0.133010764624089 -10.017394085867052 -0.000137576886228 0.073126378882653 -9.934697071666669 -0.00030954523357 0.040916057091671 -10.020532364237528 -0.000382512548133 -0.174343929759347 -10.107942442083065 -0.006271764441572 0.194531724281783 -9.815721882170672 -0.005956461519069 0.018999717540352 -10.137129283142459 -0.028003296093695 -0.063020229789172 -10.198386621968995 -0.028080342599396 0.023888357430683 -9.937955088184252 0.00000974399045 -0.130561600684747 -9.950897328170299 -0.000100466583126 -0.050651849182397 -10.115292294230288 -0.000115614975606 0.174061303579371 -9.892067524330104 0.0001727510694 0.167716679392495 -9.91442299953318 0.000264459037445 -0.067532441109288 -9.987740701281922 -0.00014193932019 0.038296394544701 -10.149797508763964 0.000099259055514 0.051997092384695 -9.862909313413446 0.000071121918983 -0.126962429788542 -10.021250680862284 -0.000191932983501 -0.005952373530509 -9.857665257930783 0.000096928471409 0.009637548482695 -9.969153195198501 -0.000012124449655 -0.080078131742259 -10.044653172489992 -0.000087897924983 0.086665263017646 -10.031424813941696 0.000053349762185 0.042302784199135 -9.974647115241588 0.000004750074379 -0.018808756634928 -10.171452213337234 -0.000060416161435 0.096548792556191 -9.968737906473931 0.000121572422034 0.019628954134742 -9.965700403843393 -0.000011689240202 -0.084764030701131 -10.057942673720673 -0.000030635490359 -0.050501263996581 -10.043770668255448 -0.00014482057232 0.043817059445026 -10.107727921676206 0.000043485095502 -0.045327739771823 -10.03358937357485 -0.000031501663362 -0.054061964269203 -9.796346072398091 0.000019225888459 0.017616014729052 -10.06727733620108 -0.000058942939338 -0.248838271446133 -10.005314601892726 -0.000215931443703 -0.053672904345812 -10.172842797386886 -0.000040138728591 -0.017744638998992 -9.973088529045246 0.000434684217465 0.028737668805298 -10.12896929718117 0.000423843526584 -0.042855313277373 -10.018850804579154 0.006136841945188 0.07835056683436 -9.931984819252827 0.006268899131924 -0.025853335397986 -10.015908258907061 0.027996327460263 -0.081249771287154 -9.922410718617181 0.027956228962072 0.121191194021918 -10.101913458424606 0.000188672373727 0.080266364170685 -9.970936951218587 0.000063490526245 -0.014429290259172 -10.039968454284745 0.000014444713265 0.061046551456589 -9.932382267136905 0.000055914510904 0.116097890784748 -9.898057067908224 0.000136037586848 0.061773862425984 -10.027594032244842 0.000056870676688 0.103173752955316 -10.079803587854048 0.000133331359635 0.051055272127461 -10.051108101000946 0.000013991235932 0.012175136618228 -10.059959961719553 0.000014731241965 -0.039485708243386 -10.057338943068226 -0.000183525480574 0.012702175181715 -10.063756617790169 -0.00001458329198 -0.021356131824932 -10.164894503782907 -0.000037478454414 0.031251768854991 -10.113451059066158 -0.00002830093539 0.254161190292981 -10.072470497538623 0.000208218591072 0.081362399505655 -9.754861530228856 0.000052495192679 0.074094268929745 -10.087861374627986 -0.000011376735823 -0.136256354353103 -9.921894031834787 -0.000136448503681 0.002692428491404 -10.035093939508888 -0.000093951176532 0.056064460300079 -10.020362511313156 -0.000035195244179 -0.144879748807693 -9.988185676308026 -0.000155653109334 -0.083658914468844 -10.160858486490305 -0.000193946774782 0.136907472908081 -9.893792049469543 0.000262807346123 -0.041100265756995 -10.164223443872736 -0.00003361902475 0.123850444421926 -10.097184642802251 0.000128234480734 -0.075543221144563 -9.934540277271768 -0.000073757710786 -0.113065593582326 -9.921992885425032 -0.000604898804041 0.106787402664248 -9.962414712119966 -0.000319421028613 -0.129289203895212 -9.897042857340946 -0.006326556636518 0.003014163388422 -9.869186794708261 -0.006201828365848 -0.085861589765853 -10.081249750964984 -0.000067597878398 -0.079453217636802 -9.996762756320479 -0.000079995000865 0.088110877025668 -9.978155491272538 0.000085778026025 0.012628619099137 -9.871651135791932 -0.000121282726615 -0.138932123752194 -10.119659061327036 -0.000260685871455 -0.019931415465112 -9.998760058033223 -0.000087573046664 -0.102973102798768 -9.901871450660938 -0.000161400769516 0.133526490700886 -9.997109619632077 0.000105596965324 -0.00620977769802 -10.07837805250764 0.000103428525705 -0.138392382742424 -10.006090592185128 -0.000086461858779 -0.026969245022412 -10.017303575958293 -0.000035245120557 0.152298281494551 -9.919997187480629 0.000245308959752 0.012352633597912 -10.009113981164193 -0.000032224561453 -0.015187868706361 -9.840981205195497 -0.000078795359129 0.052734468925422 -9.845706027051062 0.00011302038086 0.01569344710005 -9.97261122798886 0.000000053338832 -0.015318006142696 -9.98845668491898 -0.000028248768843 -0.079852133671427 -10.09014604843777 -0.000070345104854 0.09490731529822 -10.081614769947059 0.000100496029079 0.021842332403987 -10.036971738482471 0.000115848128137 -0.106084585854036 -9.877199808158567 -0.000060271770126 -0.150277954247705 -10.222577463690428 -0.00004510260807 0.114905881244074 -10.126395216533629 0.000155973254078 0.027126730624835 -10.099813676422835 0.000147873574653 -0.070967330138157 -10.023107100570064 -0.000007619540965 -0.087630696038983 -9.968398015394067 0.000407355830368 0.039607838567585 -10.128083786915019 0.000509338298303 0.210670438255038 -9.977230407855933 0.006432950184663 -0.009020841743491 -9.953905615130719 0.00618480700626 0.031886599630989 -10.045465371356613 -0.000022333849638 -0.056291401671634 -10.000359798126 -0.000113936685223 -0.046330401347118 -10.130532152156517 -0.000081600880931 -0.016978859143425 -10.118536157540834 -0.00005994989875 -0.179726467761082 -10.061276287194666 -0.000275573676472 -0.106425380648249 -10.013794173676621 -0.000086063838749 0.104259445060671 -9.93335966425126 0.000101890107741 0.010965934119349 -10.126342664886758 -0.000062637318848 -0.167728235981988 -9.861752115662055 -0.000228072220126 0.09651154652771 -9.865226667222348 0.000130810406578 0.098254329179639 -10.225780308748329 0.000030628244693 0.124722324261779 -9.96997182703706 0.000197359015855 0.124575916656405 -10.056374037858868 0.000138461923174 -0.023684943923576 -10.077957044212667 -0.000132048869919 0.122061944120029 -10.043795452100829 0.000118405942125 0.002525977476629 -9.995529594046284 -0.000077519140227 0.028271935581855 -9.971515408133717 0.000148489644923 0.139539771516202 -9.91082269254272 0.000165954680838 0.03018709654083 -9.771798447784462 0.000016332457872 0.008340202647565 -9.733425144826381 0.000080854701645 0.144367425528261 -9.941666766943513 0.000201061403124 -0.065278393785954 -9.937959624519745 -0.000149707239274 0.070415926537018 -9.953170679720786 0.000121495662375 -0.102700562304991 -9.949504856781351 -0.000172191257636 -0.031596249081228 -10.064426002008199 0.00000443083542 -0.015614644259493 -10.175803336952642 -0.00016820655062 -0.090838910491436 -10.056934293716321 -0.000337829350767 0.014956333776402 -9.977534957755216 -0.000410320582148 -0.15361251356896 -9.978657884997991 -0.000546887692003 -0.075957501448741 -10.040471475196625 0.00006170167682 0.083824997406726 -9.805784586684894 0.0001234491209 0.047523665487799 -10.033153224880413 0.00004466446151 0.146789639585876 -9.888926228839223 0.000118325898807 0.043927192238595 -9.959312451379718 0.000125436336403 0.134497486443589 -9.828849855499815 0.000156718409046 0.072466749789875 -9.926649237929853 0.0001277577632 -0.020585504847162 -10.039695670351547 -0.000048549195398 -0.109432891918132 -10.046564198804834 -0.000154231389559 -0.097622999222984 -10.201971439113613 -0.000113485597064 0.027798344714642 -10.075028469864009 0.00000071401613 -0.038478904362106 -9.922523383840238 -0.000153370208253 0.02334470483257 -10.086757551477119 0.000001832982016 0.075280006774145 -9.940999293354089 -0.000011229099319 -0.126720216855117 -10.164293872716584 -0.000159140853716 -0.069898658131331 -10.146088225688025 -0.000038053499867 0.015598216117715 -10.067682415017039 -0.000039643183334 0.089476877909812 -10.01893586172748 0.000191298487404 0.076227203583243 -9.968030624376304 0.00003146750914 -0.247944434382553 -10.173713313452831 -0.000193310638361 -0.073330079993584 -10.095228886544991 -0.000061749444605 -0.152423759036081 -9.957677778461481 -0.000009260684318 -0.03830121648882 -10.073023553884251 -0.000057021218452 0.166053244782957 -10.014047421568121 0.000241285907438 -0.006303421716809 -10.134667951780287 0.000096713260222 -0.058100537931604 -10.0912710119535 0.000084400889576 -0.060679821961301 -9.906329364057823 0.000178479616186 0.107567162677207 -9.887754781469798 0.000472820450268 0.043987288819811 -9.780977688417009 0.00054261385617 -0.013367232130271 -9.876340203958996 -0.000059453762734 0.059637839680806 -9.967333165710516 0.000132066421285 -0.03935894886597 -10.124017803147332 -0.000031252788838 0.025919994020163 -10.024797185212645 0.000056321516854 0.117917877158369 -10.115277241054821 0.00017518532585 -0.211112573501814 -9.956999790220335 -0.000190567767586 -0.064599107449915 -9.795356188635916 -0.000082978215844 0.177974788084984 -10.032353351872452 0.000154749026262 0.001547804946459 -10.015672849691553 0.00004716909314 -0.061246321808203 -10.079005133672057 -0.000060775677483 0.18337971728493 -10.052748787332096 0.000164318472436 -0.121772706370041 -9.935736656695195 -0.000163105798523 -0.118377285463644 -10.063030583513811 -0.000164362949394 0.052779932060876 -10.264870771353779 0.000058126521668 -0.014680829436618 -10.042248359243485 -0.000133955872078 0.01794906041036 -10.179386061706575 0.000021762808331 -0.109656438595155 -10.046140320517759 -0.000129090506182 -0.019568956026521 -9.89305396349971 -0.00001259931747 0.066967164538116 -9.899659548125578 -0.000036005260256 -0.032015224215991 -10.096701630250164 -0.000008219275218 -0.016977572258003 -10.086951800995051 -0.00013192183457 0.008815694732102 -9.962623939000128 0.000013311635589 -0.045610186450057 -9.959229417658591 -0.000054028423298 -0.16140135061308 -10.088584515355056 -0.000545584145424 -0.240796385359761 -9.827827146121818 -0.000743391623314 -0.057461442317044 -10.021478882820322 -0.00626709093759 -0.067753020715659 -10.038682288104798 -0.006315909144796 0.100951888094923 -9.962421393221661 -0.027989612495751 -0.106542442221881 -9.989232079599121 -0.028052119134508 -0.232800098801106 -10.10015691138941 -0.000266509319013 0.034562941479992 -9.889393022413651 -0.000039241406616 0.029270883977958 -10.138573490306971 -0.000042956470965 0.104278786772229 -9.939974026699447 0.0000186358879 -0.050578997768363 -10.230839731108118 -0.000107371968908 -0.019562078708985 -9.942197496028655 -0.000081036429447 0.000275180369786 -10.023615765295713 -0.000096770328491 -0.087648663884457 -10.058609791432934 -0.000107004506202 0.074146675578578 -10.135572170184185 0.000080625945491 0.131278590380353 -10.084561945722042 0.000157708935443 0.067470353426637 -10.039572547194881 0.000013543766442 0.057811445347035 -9.815234627736809 0.000062994397791 0.044404969225714 -9.987976350681004 -0.00000315384819 0.195672679022254 -10.090655790728105 0.000239206336357 -0.020523426599911 -9.938340987646274 -0.000058642480608 -0.046601570559 -10.027197474368714 0.000044635470196 0.091644049824442 -10.060266774919278 0.000065367412565 -0.080887034590289 -9.942086250307005 -0.00003409293655 0.033272795579347 -9.93600756329784 -0.000005801009468 -0.108769805218733 -9.953193659527455 0.000073004523075 0.038320341328406 -9.920137638522283 0.000026556230328 -0.172824362978804 -9.964233874512615 -0.000081352606758 -0.031901980951017 -9.967645339132863 -0.000039742209577 -0.025453099050057 -10.038598735603797 0.000324765124374 -0.014146246849414 -9.888583611792104 0.000529800898441 0.228729035095759 -10.196627697464004 0.006511358406293 -0.005711443164342 -9.940150148645001 0.006306385699125 -0.018175473345973 -10.064557634745714 0.028000884103758 -0.101603623886934 -10.051663272055432 0.027981020016504 0.070503557782639 -9.980179045615905 0.000081753878036 -0.154346877343128 -9.866615803744097 -0.000180486125521 0.033734228862104 -10.226613205911777 0.000057316005607 0.001858229134941 -9.807507359349186 0.000025578183683 0.093190984879118 -9.854950188083016 0.000067651520133 0.004933381325707 -9.90381316028509 0.000031342616744 -0.113669463641348 -9.923725934765116 -0.000214819203896 0.175674336478893 -10.027469557750901 0.00008443134238 0.050413957974526 -10.055589319450464 -0.000005770879053 -0.123975409969155 -10.115301487772546 -0.000139886346254 0.048124238969216 -10.109620413114714 -0.000062100136879 -0.106526123914915 -10.025629955369684 -0.000087500507421 -0.128632140837227 -10.051079475596589 -0.000115722861898 0.033348276818209 -10.04567047347367 0.000089576122529 0.166770866106762 -9.980133581729687 0.000193862721164 0.01542244296187 -10.160831100352789 0.000067350409001 -0.151346725326822 -9.977574086952329 -0.000122400382105 -0.146671425101114 -10.046916312231884 -0.000133427860158 0.170301270633089 -10.017368646888961 0.000068316484905 -0.089256350558127 -10.009420695683554 -0.000056534558097 0.080152206255185 -10.132660423342099 -0.000017153847674 -0.090131964940893 -10.067905537403329 -0.000264481374281 -0.221312064770294 -10.175280738979913 -0.000439171047482 -0.168675067896897 -9.934472571302683 -0.000673341626085 0.106101089418885 -9.993370207528374 -0.000425394937642 0.010066446752064 -10.006116928817082 -0.006446946670302 0.119696982167198 -10.033529518822085 -0.006258559057629 0.017740818031419 -10.195430937405003 0.000062289603958 0.076206715037831 -9.873241823216155 0.000065675934929 0.111375089145237 -9.992727976470054 0.000040134649163 0.018519226719087 -10.084348529341025 0.000088031117714 0.033510031061179 -10.012502133141497 0.000033996868253 0.009174414935592 -10.054546445085006 0.000011147472995 0.14847215441688 -9.991828254486981 0.000131915839074 0.076437913080911 -10.014747772422782 0.000081217423741 0.035916572115097 -10.044496843243781 -0.00000288058956 0.076422264601428 -10.0954520786477 -0.000029626687003 0.133141775348906 -10.013762623432044 0.000161920226363 0.01148092702217 -9.859599251534364 0.000056782257594 0.048245885399552 -10.171321672387291 0.000050304353563 -0.061167872522976 -10.069664641170773 -0.000105234145559 0.146321382504824 -9.928438212004805 0.000236806496588 -0.106185695060933 -9.93570324003033 -0.000099801453147 0.094355744574223 -9.904352029202499 0.000072270576319 -0.136096574285207 -9.901028916351382 -0.000119930473346 0.036585817709348 -9.9540886207