<?xml version="1.0" encoding="UTF-8" standalone="no" ?>
<VTKFile byte_order="LittleEndian" type="UnstructuredGrid" version="0.1">

  <UnstructuredGrid>
    <Piece NumberOfCells="0" NumberOfPoints="801">
      <PointData>
        <DataArray Name="mass" NumberOfComponents="1" format="ascii" type="Float32">1 1 1 1 1 1 1 1 1 1 1 1 1 1 1 1 1 1 1 1 1 1 1 1 1 1 1 1 1 1 1 1 1 1 1 1 1 1 1 1 1 1 1 1 1 1 1 1 1 1 1 1 1 1 1 1 1 1 1 1 1 1 1 1 1 1 1 1 1 1 1 1 1 1 1 1 1 1 1 1 1 1 1 1 1 1 1 1 1 1 1 1 1 1 1 1 1 1 1 1 1 1 1 1 1 1 1 1 1 1 1 1 1 1 1 1 1 1 1 1 1 1 1 1 1 1 1 1 1 1 1 1 1 1 1 1 1 1 1 1 1 1 1 1 1 1 1 1 1 1 1 1 1 1 1 1 1 1 1 1 1 1 1 1 1 1 1 1 1 1 1 1 1 1 1 1 1 1 1 1 1 1 1 1 1 1 1 1 1 1 1 1 1 1 1 1 1 1 1 1 1 1 1 1 1 1 1 1 1 1 1 1 1 1 1 1 1 1 1 1 1 1 1 1 1 1 1 1 1 1 1 1 1 1 1 1 1 1 1 1 1 1 1 1 1 1 1 1 1 1 1 1 1 1 1 1 1 1 1 1 1 1 1 1 1 1 1 1 1 1 1 1 1 1 1 1 1 1 1 1 1 1 1 1 1 1 1 1 1 1 1 1 1 1 1 1 1 1 1 1 1 1 1 1 1 1 1 1 1 1 1 1 1 1 1 1 1 1 1 1 1 1 1 1 1 1 1 1 1 1 1 1 1 1 1 1 1 1 1 1 1 1 1 1 1 1 1 1 1 1 1 1 1 1 1 1 1 1 1 1 1 1 1 1 1 1 1 1 1 1 1 1 1 1 1 1 1 1 1 1 1 1 1 1 1 1 1 1 1 1 1 1 1 1 1 1 1 1 1 1 1 1 1 1 1 1 1 1 1 1 1 1 1 1 1 1 1 1 1 1 1 1 1 1 1 1 1 1 1 1 1 1 1 1 1 1 1 1 1 1 1 1 1 1 1 1 1 1 1 1 1 1 1 1 1 1 1 1 1 1 1 1 1 1 1 1 1 1 1 1 1 1 1 1 1 1 1 1 1 1 1 1 1 1 1 1 1 1 1 1 1 1 1 1 1 1 1 1 1 1 1 1 1 1 1 1 1 1 1 1 1 1 1 1 1 1 1 1 1 1 1 1 1 1 1 1 1 1 1 1 1 1 1 1 1 1 1 1 1 1 1 1 1 1 1 1 1 1 1 1 1 1 1 1 1 1 1 1 1 1 1 1 1 1 1 1 1 1 1 1 1 1 1 1 1 1 1 1 1 1 1 1 1 1 1 1 1 1 1 1 1 1 1 1 1 1 1 1 1 1 1 1 1 1 1 1 1 1 1 1 1 1 1 1 1 1 1 1 1 1 1 1 1 1 1 1 1 1 1 1 1 1 1 1 1 1 1 1 1 1 1 1 1 1 1 1 1 1 1 1 1 1 1 1 1 1 1 1 1 1 1 1 1 1 1 1 1 1 1 1 1 1 1 1 1 1 1 1 1 1 1 1 1 1 1 1 1 1 1 1 1 1 1 1 1 1 1 1 1 1 1 1 1 1 1 1 1 1 1 1 1 1 1 1 1 1 1 1 1 1 1 1 1 1 1 1 1 1 1 1 1 1 1 1 1 1 1 1 1 1 1 1 1 1 1 1 1 1 1 1 1 1 1 1 1 1 1 1 1 1 1 1 1 1 1 1 1 1 1 1 1 1 1 1 1 1 1 1 1 1 1 1 1 1 1 1 1 1 1 1 1 1 1 1 1 1 1 1 1 1 1</DataArray>
        <DataArray Name="velocity" NumberOfComponents="3" format="ascii" type="Float32">0.11125720089463 -10.033245719371299 0.00004525717892 0.060808766435332 -9.936537896388455 0.000009480557338 -0.071213780402961 -9.884289270806555 -0.000012699545679 -0.171914522254995 -9.958224831836958 -0.000032391922952 -0.040052399595014 -9.772951175810498 -0.000065273607512 -0.227242777120751 -9.977344827514637 -0.000103687922719 0.086646091766797 -9.861372611191939 0.000021220257054 -0.103279510283852 -9.969532017228671 -0.000036239444907 -0.035856900047955 -9.968924202025272 -0.000054622525541 -0.111410701406217 -10.03244893066619 -0.000044829163074 0.004694723115406 -9.876505473722538 -0.000072167403256 0.084500805745941 -10.151349651815675 0.00002611719883 0.222456664017681 -9.960004008418318 0.000062641900031 -0.000650421653889 -9.953191394252778 -0.000011055531556 -0.075009999467811 -9.902281072710426 -0.000040106341355 0.015422076504737 -9.846190343215008 -0.000002985478889 -0.022802677147072 -9.911361009806077 -0.000008030764433 -0.132881585001053 -10.0884297634663 -0.000059429081477 0.005397364735682 -10.085116970995081 -0.000026743593671 -0.106203586754161 -9.945096319045025 -0.00000197451408 0.078703833204021 -10.030465901147547 0.000020644039364 -0.006936834658767 -10.070139902877369 0.000028033045458 -0.170550139504374 -9.970300984005483 -0.000078233249215 -0.06411114670661 -9.86841120598578 -0.000011400014025 0.015589139866412 -9.793348512718698 0.00003971501051 0.003856211778543 -10.055289723596404 -0.000001130024765 -0.010579309962647 -9.925728911267788 -0.000041386494303 0.031934826504171 -9.988710268185931 0.000016736793161 -0.089160478985318 -9.898641796037957 -0.000068922010819 0.131753237031122 -10.148217727547987 0.000055124583702 0.050578378833338 -10.077246829971747 0.000025368103229 -0.015966879089935 -9.899990343381114 -0.000046148709595 0.097431399230652 -10.048495071927295 0.000044138374358 -0.024267814190086 -9.964602902300578 -0.000041417610169 -0.107427772350834 -9.867195905478914 -0.000039348804976 0.052894602882466 -9.989260367091916 0.000004645235347 0.039732650433708 -9.909083720363238 0.000050082777331 -0.011122475564707 -9.922525324618499 -0.000023468118677 -0.039476919171192 -9.879207672747603 0.000004798446138 0.026468927216565 -9.941671618006609 0.000024043562769 -0.009236417565066 -10.14837811228359 -0.000005653390103 0.194134539135757 -10.092700702885036 0.000088377524607 0.079942792053486 -10.146385468119034 -0.000001576495599 0.101144896144074 -10.068193048817177 -0.000004117704703 -0.029018572205364 -10.15028821493388 -0.000024102431797 -0.08341786433694 -10.058627732206549 -0.000018070104472 0.141770597073017 -10.208815299325998 0.000035833241527 -0.002793021979653 -9.840846541909753 0.000038259227408 0.153850800729524 -10.097999373283255 0.000067538473775 0.133933111643964 -10.06962219912401 0.000076062742829 -0.076363533279403 -10.09856490153566 -0.00000831373699 0.049397056541438 -10.148105257469819 0.000006574175472 -0.070426243458449 -9.953747437453977 -0.000049542408478 -0.0350522812858 -9.973541233311323 0.000008839023847 -0.069397874548249 -9.949988222683489 -0.000024678789297 -0.066215579970376 -9.996290107056554 -0.000013786900402 -0.06725211370719 -10.053431708774925 -0.00004063059569 0.083428627195928 -9.934451977006393 0.000052501057456 0.007573090762676 -9.982208861051939 -0.000010480121016 0.068804365687091 -9.868311325142471 0.000054214084909 0.003907979060982 -10.09327172530203 -0.000035133000785 -0.015933975894777 -9.856632280039156 -0.000052060923942 0.043820984744122 -9.849609346400696 -0.000006826682528 0.035927245010652 -10.11984286784725 0.00001426365376 -0.111972366178671 -10.035539699257464 -0.000034967008805 -0.205466857026778 -9.92519944357092 -0.000041250280551 0.223129967342072 -10.131152693013368 0.000105264759019 0.029788293384478 -10.062019776885927 0.00004429341048 0.01926218212007 -9.840983437180219 -0.000015552342011 0.020402448741624 -9.901325048982159 0.00003009843136 0.135440001139469 -9.929478244334124 0.000082781000624 0.00698705433263 -9.993198098233369 0.000020912899255 0.209543771622665 -10.00367923106035 0.000110971980074 -0.034895503562368 -9.966736859221628 -0.000009146286907 0.074673443833836 -10.124950602197824 0.000008000154887 0.061623070008207 -10.127946228050195 0.000026720824715 0.115419386350685 -10.104793691435308 0.000053354983753 -0.072230185980433 -10.112407310752589 -0.000043549934642 -0.064464290151387 -9.980350749260058 -0.000029997684422 -0.119324954146714 -9.935821015647708 -0.000055613355487 0.001086697796182 -9.952335661471308 -0.000012412492769 -0.175104207093779 -9.962123964591651 -0.000086261245438 0.03380208292396 -10.058829840411045 -0.000019601124152 -0.07546736347163 -9.756983212352534 -0.00000953887205 0.066559069585298 -10.006999057440163 0.00003855079782 -0.043711276552008 -9.907161650845525 -0.000015382332928 -0.168984293197883 -9.893841707944532 -0.000065500114036 0.062352456221404 -10.050186266481868 0.000021431661514 0.203308866382051 -10.019055349689324 0.000105100969106 -0.017842622359916 -10.195206586543858 0.000014619358296 0.057744161433481 -10.080804415933347 0.000051335389532 0.011618096503635 -10.056196314810926 0.000009277601289 -0.074067913911473 -9.820957095064861 -0.000039254521414 0.141440777625048 -9.888988501140028 0.000064682661085 -0.052051935484377 -10.106076626314323 -0.00007063810411 0.136224545470186 -9.842734119376722 0.000070951725501 0.119368345368105 -10.088293083859018 0.000022799449477 0.064949767736301 -10.07947575868458 -0.000001224777601 0.053113678732262 -9.977822168734676 0.000014106079261 0.079534844369178 -10.124861713090899 0.000035991965743 0.006804153811224 -10.0861239012211 -0.000035359587578 -0.035917300598527 -9.944823262218446 -0.000048964769549 0.027927768113433 -10.059831285769842 0.00000828006517 -0.082621454156095 -10.02945916026875 -0.000072359609559 0.151515257410591 -9.818453784412787 0.000041915129204 0.097525675624118 -10.123056142443977 0.000031251771287 0.095695787663143 -10.071957488982077 0.000045114016249 -0.05659567741429 -10.102759861986723 -0.000021221944789 0.098385434961555 -10.050098710059402 0.000038947495031 -0.131787478913343 -10.026889775908963 -0.000061652525072 0.102580818484769 -9.92330263728819 0.000039073579074 -0.073993695183803 -9.964398986501473 -0.000032662655883 -0.056132948974533 -9.868316325789301 0.000005568171678 0.039889224710212 -10.031861538111091 -0.000006453072149 0.142270124541062 -9.974923532557179 0.000111830678884 -0.02817517109368 -9.944686365505534 0.000010893289154 -0.006657907882552 -9.728565196993134 0.000032952545768 -0.075821002825944 -10.049328146540324 -0.000023429007983 0.112377827596999 -10.002257659231528 0.00005794853319 -0.012326880658224 -9.882408296922431 0.000005475917741 -0.003599068114959 -10.189110508110053 0.000000702522292 -0.095599929345373 -9.941043912950365 -0.000036128648841 0.042475505954703 -10.079662886621671 0.000007877299532 0.250466824634749 -10.006335538243523 0.000083464825 0.07618357968523 -9.950805481616497 0.000006773306795 -0.060916227691935 -10.051989930755571 -0.000037114711902 -0.000430094696677 -10.10380055855941 -0.00002372131095 -0.094103463407077 -10.036081764738716 -0.000022977325957 -0.019941581216295 -9.951727386732829 -0.000023686251143 0.07651594933668 -9.978648989460758 0.000025778400588 0.040153690523972 -9.961386941044839 0.000017202829312 -0.00500378153091 -10.20894316687702 0.00000749351485 -0.108825848684505 -9.837870326300882 -0.000113176151602 0.065712942926264 -10.145742760905286 0.000048214601549 -0.078851830535676 -9.970216476191709 -0.000094309717066 -0.089700867963682 -10.138187660936259 -0.000015752274291 -0.026740015822513 -10.064767452658812 -0.000040784806482 -0.011753212307312 -9.930622643019085 -0.000019010509069 0.056056693588658 -10.156674647970361 0.000004454920611 0.072681719250694 -9.880944120114076 0.000068991275572 -0.004507019525306 -10.123015141258202 -0.000009988857253 0.088242769639565 -9.971790973755668 0.000079432581544 0.008844209357261 -10.145395745752939 -0.000018775664932 0.159293648812354 -10.202321947169626 0.000106694686989 0.115406023290624 -10.036872455188481 0.000035534147043 -0.114625676332513 -10.077899110192476 -0.0000299283629 0.135180523286896 -9.919630430280368 0.000035972790779 0.070006475606178 -9.933179965949151 0.000037290769799 -0.034625326128916 -10.06352187222336 -0.000014183251577 0.067937820666013 -9.959472167314765 0.000028159204451 -0.061996159980972 -10.006974506681509 -0.000067538381287 -0.146897709776016 -10.016312835167794 -0.00003569394818 -0.081691236735936 -10.019938868196787 -0.000036968996546 -0.129418097645689 -9.909723356767252 -0.000050039348929 0.025446266127007 -10.018576673205633 0.000016983954402 -0.02241547581724 -9.852956933471502 -0.000031178052645 0.183225942229713 -10.052974119156795 0.000067969023055 -0.096441035473114 -9.977652136310311 -0.000074586028198 0.249636631478015 -9.906020612894428 0.000091976344127 0.118557134847385 -10.171017239764934 0.000017034580374 -0.033537449789095 -9.93335954651514 -0.000048083726912 -0.009098025494448 -10.12698505820118 -0.0000143166701 0.237725107493841 -9.944149025408507 0.00009426198822 0.169272373098919 -9.865946514977754 0.000064132815288 -0.051087654226699 -9.93742957932443 -0.000056582728334 -0.010237182080806 -10.151533853595017 0.000030868320219 0.084852138606775 -10.052872187588541 0.000023558403359 -0.032569267081957 -9.915589581235171 -0.000026403348983 -0.052741812599306 -9.894460465916625 -0.000094255016916 0.009125765195027 -10.025310132294086 0.000007596008376 -0.072457876900338 -9.917772708689391 -0.000091205035147 0.040440136192147 -9.893179068162789 0.000044952053728 -0.070789623657032 -10.101250708053236 -0.000053590029403 -0.124277190148599 -9.953293064823189 -0.000066409192408 -0.072247790322667 -9.968753103759479 -0.00002280990707 0.09145329274783 -9.929729060141346 0.000029956050437 -0.128905592409656 -10.042223797242231 -0.000043982572093 -0.182356684812623 -10.064825084307143 -0.000052198044707 -0.134954838702472 -10.057169598656339 -0.000085081970089 0.011473067255101 -10.120178771893533 0.000031613876313 0.003382223169387 -10.030063776869195 -0.000072381025937 -0.148970968089085 -10.144729261757856 -0.000103177027211 -0.08866994994927 -9.896774419988256 -0.000121363983997 -0.128343339873619 -9.917034647015329 -0.000188869508121 0.009962414198336 -9.930302180704563 -0.000169849125446 0.058491234341973 -9.890706764904532 -0.000184701823488 0.112812217675654 -10.104683777346391 0.000043382651426 0.011629070128321 -9.882030589740088 0.000036283190863 0.127259438044997 -9.848187888035312 0.000058974767454 0.046372379516725 -10.245171625063911 0.000009963056493 -0.086569150437756 -9.863122121672424 -0.000059103035382 0.102800412744402 -9.941118476678776 0.000047038060789 -0.042278485004582 -9.981201786734685 -0.000023694897701 -0.11863861077282 -9.955540642538621 -0.000054924364007 0.175800072047582 -9.940537633138016 0.000112514724082 -0.088146868593303 -10.106788611575576 -0.00005304290889 0.039777218757735 -9.908721606477586 0.0000275856554 -0.104327102901018 -10.05260525227396 -0.00003038573682 0.035030165081833 -9.921061633560633 0.000006400729057 0.108230825170706 -10.130739872465028 0.000038094763006 0.012698686535644 -10.009589652535762 -0.000005935185019 -0.122890928876841 -9.998650128500868 -0.00008519151382 0.095562892942683 -9.949484675056304 0.000037508832711 -0.079993003058405 -9.84527411246337 -0.000040126186831 0.107935813851581 -9.985639785847823 0.000057788310057 0.010521640802601 -9.978844384205962 -0.000013504044694 0.008691529443079 -9.927257739725867 -0.000002417372009 -0.031708542530489 -9.704969571593228 0.000012685355975 0.124363002007945 -9.962454551924973 0.000037442445724 0.046314950504323 -10.016332279857659 0.000056445407343 0.099621952231139 -9.975909264550323 0.000065995518098 0.068514268408459 -9.872637379790019 0.000070482155378 0.06326131342351 -9.933120746862333 0.00006719080902 -0.148313996882494 -9.938471170055486 0.000074235378528 -0.011069896574445 -10.120586551403115 0.000100097266819 0.031668617561201 -9.972665925321307 0.000213589486767 0.082901763331292 -9.952704600797516 0.000214354935486 -0.138187561515485 -9.824766671763911 -0.000086590222089 0.113555768106104 -9.830433315246031 -0.00000995307292 0.012845794952663 -10.114769313341592 0.000028971782401 0.007723503973068 -10.044480101734408 -0.000052177349477 0.189804800436076 -9.983649047854982 0.000049028992828 0.127431703335884 -9.994859706887418 0.000038810675554 -0.101006770698923 -10.00277440691068 -0.000084163239709 0.001428705491134 -10.063473810600705 -0.000045822061717 0.118903128163905 -10.043320099884573 0.000020492868448 0.209804740090829 -10.072802852451909 0.000099673711122 -0.108332479097433 -10.025731149280162 -0.000053909262158 -0.147537710853575 -10.054904717234271 -0.000078798203565 0.030486862182948 -9.872002108201029 0.000016240987287 0.214448164690112 -10.13638278507128 0.000061402851385 -0.000856083170214 -9.981271562980552 -0.000008926585635 0.170419569348442 -9.883810936085842 0.000065287817262 -0.068591816860132 -10.068594355180554 -0.000024803332994 0.020448414170722 -9.933040431232879 0.000020326673157 0.16895260688188 -10.026333706066143 0.000082618352567 -0.020109000706176 -9.885774382231556 0.000024160188386 0.033446673645655 -9.978041444479828 0.00001855205981 -0.202669864093846 -9.955210544453452 -0.000092209148271 -0.150997601281694 -10.011884574589413 -0.000024167721981 0.063977448077884 -10.004336044189257 0.000001317413521 -0.132961982726522 -10.017483472549923 -0.000067121267652 0.073233529713147 -9.932285106784958 -0.00022813858202 0.041059087277612 -10.022736746203638 -0.00025721863806 -0.172032232185104 -10.104581777282018 -0.003945675169841 0.196719738040594 -9.815655196050745 -0.00381983823721 0.029318456838319 -10.13048783383025 -0.017691754248379 -0.052673708492176 -10.208181251582204 -0.017722529175596 0.02388268079397 -9.936407852011186 0.000003889987182 -0.130527044903796 -9.951520472917606 -0.000040049711277 -0.05060319391813 -10.118344500739097 -0.000046069938509 0.173990581137072 -9.890803750538444 0.000068953662607 0.167608754084664 -9.910923386674769 0.000105476963392 -0.067467572848126 -9.989511459437631 -0.000056639047834 0.038253255626967 -10.152699588398251 0.000039602148935 0.051967260888187 -9.861984266517007 0.000028384781205 -0.126884163890188 -10.020608418302151 -0.000076534164685 -0.005997783714272 -9.856108366757493 0.000038703337315 0.009642132880517 -9.968272923239208 -0.000004796084504 -0.080044493791986 -10.046715275100469 -0.000034957399022 0.08664911724188 -10.030794278013284 0.0000213254775 0.042304944628392 -9.974123732102674 0.000001991094883 -0.018783428993374 -10.174232093573467 -0.000024018728531 0.09650493367754 -9.967993898741849 0.000048591076814 0.019630392430549 -9.963409327499603 -0.000004478059697 -0.084750042050133 -10.058219921790517 -0.000011865819942 -0.050439652121372 -10.044489195732778 -0.000057444577413 0.043806421245848 -10.110539175234942 0.000018116637267 -0.045317978407953 -10.033271707778646 -0.00001176270788 -0.054074876372963 -9.792212236857244 0.000010195381609 0.017642368937281 -10.06672397317665 -0.000020939597699 -0.248750961922349 -10.00719681231211 -0.000073834723075 -0.053655738085545 -10.174093229720519 -0.00000374633022 -0.017904758381031 -9.97198298107377 0.000278009819717 0.028586921242058 -10.130674287553173 0.000273700302136 -0.045112802682401 -10.014697959588483 0.003891912293184 0.076039167372424 -9.935019010740863 0.003944530701121 -0.03616949852216 -10.009015946408535 0.017688958737088 -0.091550633612168 -9.929213093984535 0.017672967348546 0.121110264496143 -10.103435190411581 0.00007525142923 0.080242846818018 -9.970238173806589 0.000025262666733 -0.014436893980898 -10.040578822765127 0.000005746953687 0.061024806311874 -9.931318042910551 0.000022262043207 0.116039876272628 -9.895506101510644 0.000054169855717 0.061751015932394 -10.028180985525722 0.000022643194527 0.103116266191677 -10.081413443714256 0.000053164176176 0.051051762737147 -10.051228056277965 0.000005522078891 0.012171552545712 -10.059771944891819 0.000005801478111 -0.039407318153426 -10.056514469113965 -0.000073228975013 0.012711570504131 -10.063347163764114 -0.000005886300723 -0.021346810190581 -10.166499485860241 -0.000015015939886 0.031264660727327 -10.116806139373512 -0.000011370505383 0.254077009186949 -10.071597512486271 0.000082876636672 0.081338781029816 -9.75061802895917 0.000020820730956 0.074100722735321 -10.088401036499963 -0.000004787177906 -0.136209618123697 -9.922467768492416 -0.000054664350554 0.002733633090767 -10.035021904614705 -0.000037987400296 0.056083219527202 -10.020035969604971 -0.000014517952072 -0.144819581890462 -9.988599146550978 -0.000063217625923 -0.083575975437748 -10.161927605339105 -0.000078543290754 0.136797590274162 -9.891355289771104 0.000101502705817 -0.041088110180858 -10.166135450490014 -0.000016744516734 0.123796678178789 -10.100064659545945 0.000037206712386 -0.075515374821705 -9.932584998823815 -0.000043335666468 -0.112837317141919 -9.918809853793068 -0.000348752866718 0.106900405942329 -9.965344710128086 -0.000234962445205 -0.126949398039272 -9.892264121059767 -0.003971244228779 0.00529542533816 -9.873067338485614 -0.003921422847244 -0.085834224264059 -10.082748403294376 -0.0000269332539 -0.079424428492009 -9.99709820228507 -0.000031873966493 0.088078143981197 -9.976166571861048 0.000034229970374 0.012681589851232 -9.869656758967809 -0.000048335907786 -0.138822965538134 -10.122586032068362 -0.000103960084324 -0.019891884120953 -9.999811419581771 -0.000034877750402 -0.102907783781134 -9.898689658786839 -0.000064321644499 0.133489633810622 -9.996992389143632 0.000042132560516 -0.006257759980659 -10.0802749028026 0.000041306291746 -0.138363388892853 -10.006827932613438 -0.000034410211381 -0.026954361486049 -10.016848687612262 -0.000014003624748 0.152193845331491 -9.919958412029033 0.000097954443285 0.012369271202415 -10.010395612415401 -0.000012770815297 -0.015150029466841 -9.839320049302362 -0.000031307268202 0.052685992070414 -9.843254911291831 0.000045243722746 0.015692113357283 -9.97272298554943 0.000000274301765 -0.0153055841569 -9.98883854198233 -0.000011025328453 -0.079823210545684 -10.091511466836021 -0.000027525432507 0.094865191226142 -10.084024670577017 0.000040559179293 0.021794527474042 -10.034982379405625 0.00004737692539 -0.106062574110363 -9.8735953636336 -0.000022885506587 -0.150259979932352 -10.225056609705225 -0.000014635888992 0.114846075945552 -10.12923837518685 0.000065546666601 0.027069074725888 -10.099701788585792 0.000072847588295 -0.070958419064396 -10.021545444860976 0.00001087235599 -0.087780908874901 -9.965330915287057 0.000269989080315 0.039418688790815 -10.132296497880493 0.000310674978177 0.208289155877861 -9.972731119156808 0.004013617125348 -0.01129903494109 -9.957116537597821 0.003914658831776 0.031899351422595 -10.045162208303637 -0.000008937847705 -0.056247154164858 -9.999052507364249 -0.000045449155312 -0.046294330315291 -10.131731255694831 -0.000032618789425 -0.0169528704009 -10.120341953523143 -0.000023959601317 -0.179613622292413 -10.061725653399037 -0.000109913470543 -0.106391516943829 -10.012018527886566 -0.000034376673156 0.104211075093321 -9.932967460740336 0.000040586128724 0.010991096360357 -10.12929276482323 -0.000025053992542 -0.167636687962174 -9.858368201788299 -0.000091063661224 0.096461572009352 -9.862355150852681 0.000052040188132 0.098249041336558 -10.229962587266478 0.000012137928178 0.124636421577245 -9.96997986653853 0.000078546529668 0.12452262533417 -10.055035261100484 0.000055036696224 -0.023632282443621 -10.079433994976092 -0.000052818930132 0.12201638305978 -10.04429743469472 0.000046944129272 0.002560807356551 -9.995492443745473 -0.000031355380124 0.028202039696842 -9.972574479824004 0.000058839653861 0.139474250825297 -9.911578501091693 0.000065361523522 0.03017755790742 -9.768877891164887 0.000005681708615 0.00830039201807 -9.730367250868703 0.000030369144212 0.144284426667292 -9.942938289896643 0.000078275778018 -0.065214668496549 -9.939549789207767 -0.000065146587651 0.070366217095257 -9.952393366005325 0.000042981391702 -0.102633273885491 -9.947478881103169 -0.000086473132767 -0.031601128326661 -10.065580320542058 -0.000016098885271 -0.015559660187422 -10.176922859475845 -0.000120778378821 -0.090706615411544 -10.059738817879596 -0.000188407970041 0.015106162939654 -9.969136654329038 -0.000266281399986 -0.153409239543417 -9.984901972687405 -0.000320731096745 -0.075992873015428 -10.042357487374513 0.000024667141702 0.083776801403294 -9.803293231907713 0.000049283780786 0.047505986419175 -10.033650659029322 0.000017855890288 0.146744224934518 -9.890121282703115 0.000047218866168 0.043875677534895 -9.958965966359113 0.00005003675438 0.134431349669161 -9.826666655833378 0.00006255865224 0.072415620016552 -9.92547571576875 0.000050976850742 -0.020563115311079 -10.040072798732337 -0.00001931558433 -0.109369694829613 -10.04727487844287 -0.000061430166272 -0.097580962837408 -10.205424329580881 -0.000045128480724 0.027799828043094 -10.075161819237577 0.000000375376607 -0.038411012257393 -9.920224801934905 -0.000061038319062 0.02334461205201 -10.086229512928863 0.000000873388618 0.075286541813654 -9.939504421430694 -0.000004263080156 -0.126657067199247 -10.165686632883419 -0.000063231164988 -0.069886895795705 -10.148750385775138 -0.000014734768838 0.015617783559042 -10.067707218283026 -0.000015418404979 0.089394278673106 -10.016632988445018 0.000077109278398 0.07621808138817 -9.966237963118996 0.000013373971633 -0.247865631662744 -10.176660220492474 -0.000075189409741 -0.073306668732614 -10.096464807677506 -0.000022692725416 -0.15241999056461 -9.955477973208684 0.000001780797804 -0.038273787756944 -10.072357467095909 -0.000017309614254 0.165963956561132 -10.013680895956369 0.000114058795166 -0.006340973586368 -10.13721179311368 0.000056396159982 -0.05812173155702 -10.091212812141805 0.000087397458484 -0.060743169928648 -9.907735565278228 0.000124892918 0.107392925391585 -9.879304215191885 0.000291227699601 0.043780828103026 -9.786838513821243 0.000319048746125 -0.013338180757975 -9.873695212909848 -0.000023798248245 0.059585760899707 -9.967633126190824 0.000052573618548 -0.039348332206895 -10.125972990689418 -0.000012522474232 0.025897527598658 -10.025783523743813 0.000022390952191 0.117841296912924 -10.117813867349536 0.000069852736479 -0.211039041528053 -9.955864127932152 -0.00007610215586 -0.064558226901245 -9.791037236098497 -0.000033211752736 0.177907721225489 -10.032572040532028 0.000061625479756 0.001526172002722 -10.017155756658648 0.000018717981443 -0.061222699232555 -10.080554571974627 -0.000024384826354 0.183313169273428 -10.052889797103211 0.000065395405417 -0.121701083276296 -9.931904435074864 -0.0000652677188 -0.118310583964207 -10.06328246509378 -0.000065749221405 0.052752240693963 -10.268201051297813 0.000022810179531 -0.014623931791631 -10.042040079267206 -0.000053808161215 0.017939162667169 -10.180925080938092 0.00000795401806 -0.109600621625715 -10.047381225739754 -0.000052208530644 -0.019566488304922 -9.889172217959892 -0.000006545445997 0.066985911022405 -9.897028313673967 -0.000015900952869 -0.03201220163596 -10.099434647462529 -0.000007217426811 -0.016921892409893 -10.089446848342366 -0.00005653401719 0.008810576970346 -9.960426559474366 -0.000009567976118 -0.045597925260877 -9.959350236368204 -0.000036406311273 -0.161195651241556 -10.08966099192728 -0.000326602583582 -0.240514635212353 -9.825637626022262 -0.000405526158653 -0.055150303412614 -10.016838585734012 -0.00394973386405 -0.065417195021205 -10.045285977645205 -0.003969266513348 0.111263609340812 -9.955127245833271 -0.017692682682913 -0.096205121881858 -9.995658252321235 -0.017717627262152 -0.232695906609375 -10.101490289351768 -0.000106226537172 0.034584309123671 -9.887361375098095 -0.000015564455709 0.029292052700987 -10.138112418775467 -0.000017068529535 0.10427561692148 -9.940383655091045 0.000007491354556 -0.050535727622763 -10.233256521724112 -0.000042724108468 -0.019532426472809 -9.94129612258196 -0.000032231367853 0.000316042054728 -10.02104124817965 -0.000038496678618 -0.087609615548462 -10.059319618846347 -0.000042534613748 0.074114276849832 -10.137237728795512 0.000032235507176 0.131213568595104 -10.08685410865661 0.000063030966504 0.067465702904742 -10.039205425151927 0.000005576256259 0.057790319018443 -9.810899265301396 0.000025333901303 0.044408028612903 -9.987966195462047 -0.000001027883285 0.195572907682552 -10.093408963405109 0.000095827875415 -0.020497860192815 -9.936974552192954 -0.000022987358721 -0.046625029556681 -10.027320607671729 0.000018545362788 0.091615654908433 -10.06224907490755 0.000026800621926 -0.080870797775234 -9.94134537953375 -0.000012117786275 0.033275441625701 -9.935140843397015 -0.000000789123147 -0.108802809611316 -9.953177170692419 0.000033034458516 0.038309996539415 -9.919643178711647 0.000014521670649 -0.172789906367595 -9.963673612403189 -0.000017555870486 -0.031881020522032 -9.968762385256362 -0.00000095060542 -0.02556037531844 -10.037408279649792 0.000238552006886 -0.014347248636487 -9.888031924306354 0.000320324250085 0.226319318488635 -10.194391475772242 0.004047142427269 -0.008042023162961 -9.944233145102036 0.003965399022227 -0.0284904183537 -10.056678509717457 0.017697201273527 -0.111910962977924 -10.059385875996103 0.017689287887871 0.07046997355345 -9.979131198901497 0.000032513920476 -0.154273931853325 -9.866220633821236 -0.000072073894988 0.033710414198578 -10.231547358921553 0.000022767811388 0.001846986549615 -9.80627717616032 0.000010065772011 0.093167150836953 -9.851352911837495 0.000026782503846 0.004920568463222 -9.90360857002681 0.000012395212017 -0.113580828149152 -9.923308780984904 -0.00008588233774 0.175643958652113 -10.027742668638343 0.000033467726397 0.050413712435552 -10.056167289689808 -0.000002451447138 -0.123919503020405 -10.116691781338755 -0.000056032940336 0.048149424922278 -10.110488726607652 -0.000025020539635 -0.106490207138082 -10.024788220891613 -0.000035323945069 -0.128584455717618 -10.051183349324095 -0.000046591766105 0.033315164763474 -10.044897592932612 0.000034907398446 0.166691894884609 -9.979590217785548 0.000076583464739 0.015392267628919 -10.16262455919084 0.000025429518369 -0.151299685082134 -9.977266178041599 -0.000050284379015 -0.146618737510389 -10.046311011253502 -0.000056507561179 0.170277472495901 -10.016816213144946 0.00002397729355 -0.089234785345899 -10.008598396260638 -0.000031288687942 0.080158303204986 -10.133240780936124 -0.000015546223828 -0.090024523383767 -10.06925987153133 -0.000134872092809 -0.221132267689039 -10.177263794192674 -0.00020461834717 -0.168431365430778 -9.930856780046771 -0.000417117373735 0.106239237275601 -9.993565990168044 -0.000318139725235 0.012435817511248 -10.002089787100909 -0.004081707057717 0.121988241210637 -10.038465742228817 -0.004006565576706 0.017717634591425 -10.199575272558706 0.000024898854972 0.076182242710902 -9.868990848878573 0.000026301108616 0.11136293627214 -9.990905366752422 0.00001609083021 0.018478266663797 -10.086325969435881 0.000035274228502 0.033491243334621 -10.012850453687143 0.000013723821873 0.009167613477495 -10.054643901666337 0.000004598753067 0.148419195764626 -9.991238442779844 0.000052716498877 0.076405243223964 -10.013757555232397 0.000032556190416 0.035922873654549 -10.045195096765879 -0.000000999159365 0.076440749671818 -10.097926738598316 -0.000011545442653 0.133071586655997 -10.012252447121817 0.000064882183568 0.011451474622855 -9.856052782173359 0.000023091255581 0.048222038188845 -10.174533806928995 0.000020508718946 -0.061122670662457 -10.072435870132905 -0.000041257688009 0.146220646283231 -9.926652041793199 0.000095205052171 -0.106143253090434 -9.934929549947629 -0.000038366119089 0.094327191053171 -9.903796711741002 0.000030288712371 -0.13604807675818 -9.899152444846562 -0.000044513529048 0.036586594392464 -9.95389475502