<?xml version="1.0" encoding="UTF-8" standalone="no" ?>
<VTKFile byte_order="LittleEndian" type="UnstructuredGrid" version="0.1">

  <UnstructuredGrid>
    <Piece NumberOfCells="0" NumberOfPoints="801">
      <PointData>
        <DataArray Name="mass" NumberOfComponents="1" format="ascii" type="Float32">1 1 1 1 1 1 1 1 1 1 1 1 1 1 1 1 1 1 1 1 1 1 1 1 1 1 1 1 1 1 1 1 1 1 1 1 1 1 1 1 1 1 1 1 1 1 1 1 1 1 1 1 1 1 1 1 1 1 1 1 1 1 1 1 1 1 1 1 1 1 1 1 1 1 1 1 1 1 1 1 1 1 1 1 1 1 1 1 1 1 1 1 1 1 1 1 1 1 1 1 1 1 1 1 1 1 1 1 1 1 1 1 1 1 1 1 1 1 1 1 1 1 1 1 1 1 1 1 1 1 1 1 1 1 1 1 1 1 1 1 1 1 1 1 1 1 1 1 1 1 1 1 1 1 1 1 1 1 1 1 1 1 1 1 1 1 1 1 1 1 1 1 1 1 1 1 1 1 1 1 1 1 1 1 1 1 1 1 1 1 1 1 1 1 1 1 1 1 1 1 1 1 1 1 1 1 1 1 1 1 1 1 1 1 1 1 1 1 1 1 1 1 1 1 1 1 1 1 1 1 1 1 1 1 1 1 1 1 1 1 1 1 1 1 1 1 1 1 1 1 1 1 1 1 1 1 1 1 1 1 1 1 1 1 1 1 1 1 1 1 1 1 1 1 1 1 1 1 1 1 1 1 1 1 1 1 1 1 1 1 1 1 1 1 1 1 1 1 1 1 1 1 1 1 1 1 1 1 1 1 1 1 1 1 1 1 1 1 1 1 1 1 1 1 1 1 1 1 1 1 1 1 1 1 1 1 1 1 1 1 1 1 1 1 1 1 1 1 1 1 1 1 1 1 1 1 1 1 1 1 1 1 1 1 1 1 1 1 1 1 1 1 1 1 1 1 1 1 1 1 1 1 1 1 1 1 1 1 1 1 1 1 1 1 1 1 1 1 1 1 1 1 1 1 1 1 1 1 1 1 1 1 1 1 1 1 1 1 1 1 1 1 1 1 1 1 1 1 1 1 1 1 1 1 1 1 1 1 1 1 1 1 1 1 1 1 1 1 1 1 1 1 1 1 1 1 1 1 1 1 1 1 1 1 1 1 1 1 1 1 1 1 1 1 1 1 1 1 1 1 1 1 1 1 1 1 1 1 1 1 1 1 1 1 1 1 1 1 1 1 1 1 1 1 1 1 1 1 1 1 1 1 1 1 1 1 1 1 1 1 1 1 1 1 1 1 1 1 1 1 1 1 1 1 1 1 1 1 1 1 1 1 1 1 1 1 1 1 1 1 1 1 1 1 1 1 1 1 1 1 1 1 1 1 1 1 1 1 1 1 1 1 1 1 1 1 1 1 1 1 1 1 1 1 1 1 1 1 1 1 1 1 1 1 1 1 1 1 1 1 1 1 1 1 1 1 1 1 1 1 1 1 1 1 1 1 1 1 1 1 1 1 1 1 1 1 1 1 1 1 1 1 1 1 1 1 1 1 1 1 1 1 1 1 1 1 1 1 1 1 1 1 1 1 1 1 1 1 1 1 1 1 1 1 1 1 1 1 1 1 1 1 1 1 1 1 1 1 1 1 1 1 1 1 1 1 1 1 1 1 1 1 1 1 1 1 1 1 1 1 1 1 1 1 1 1 1 1 1 1 1 1 1 1 1 1 1 1 1 1 1 1 1 1 1 1 1 1 1 1 1 1 1 1 1 1 1 1 1 1 1 1 1 1 1 1 1 1 1 1 1 1 1 1 1 1 1 1 1 1 1 1 1 1 1 1 1 1 1 1 1 1 1 1 1 1 1 1 1 1 1 1 1 1 1 1 1 1 1 1 1 1 1 1 1 1 1 1 1 1 1</DataArray>
        <DataArray Name="velocity" NumberOfComponents="3" format="ascii" type="Float32">0.111227366552892 -10.034523425834115 0.000000314128087 0.060805658568401 -9.935903843828065 0.000000065823184 -0.071208267045928 -9.884086403642184 -0.000000088236441 -0.171894660011675 -9.958253248789555 -0.000000225053399 -0.040005685137735 -9.771916313662979 -0.000000453097433 -0.227172522761825 -9.977484517305403 -0.000000720063226 0.086633189404214 -9.861286675381981 0.000000147404386 -0.103257806232087 -9.969183717245929 -0.000000251479153 -0.035820584173532 -9.969957838067618 -0.000000379164246 -0.111381357901489 -10.032138106960847 -0.000000311131818 0.004744406750157 -9.875589752821238 -0.000000500983859 0.084484849488783 -10.152973728245557 0.00000018129248 0.222414236852297 -9.960723935486699 0.000000435033974 -0.000641804012309 -9.95272293028083 -0.000000076806003 -0.074983757510776 -9.901934795415492 -0.00000027812768 0.015422902474823 -9.844362846958122 -0.000000020630644 -0.022797762978458 -9.910541281690911 -0.000000055804504 -0.132840877854056 -10.090437826636808 -0.000000413306062 0.005419163319145 -10.0862874253624 -0.000000185899607 -0.106203720367677 -9.943687990522607 -0.000000013782155 0.07868903684461 -10.03046948739321 0.00000014345258 -0.006954847094961 -10.071828684426967 0.000000194494466 -0.170496497457946 -9.970941103332702 -0.000000542943627 -0.064101924960752 -9.866339704140145 -0.000000079108616 0.015559050911631 -9.79182664348968 0.000000275908963 0.00385878512986 -10.056271436200438 -0.0000000079343 -0.010551636747246 -9.92689780361226 -0.000000287008488 0.031923656069486 -9.983960444776006 0.000000116147856 -0.089112684049028 -9.901139614506313 -0.000000478545755 0.131713320885581 -10.138301845322758 0.000000382780111 0.050562426675577 -10.088920716212193 0.000000176065801 -0.015935374209846 -9.898888910986757 -0.000000321085448 0.097399601963248 -10.050185593784903 0.000000305843528 -0.024236461174901 -9.964822256204167 -0.000000288514925 -0.107400666523898 -9.866030273897481 -0.000000274329875 0.052893854990606 -9.9897254489163 0.000000031412643 0.039697856735402 -9.909480818042807 0.000000347276042 -0.011108664610817 -9.922079694809 -0.000000163571802 -0.03948032085376 -9.877652643313441 0.000000032388875 0.026450023938717 -9.940997813376448 0.000000165841676 -0.009229859450044 -10.149789209982753 -0.000000041032599 0.194076604721318 -10.093601273525167 0.00000061190833 0.079944476770561 -10.14635153243235 -0.000000012807377 0.101150838168783 -10.068097356451545 -0.000000030571895 -0.029006988339473 -10.149999015257476 -0.000000170500863 -0.083408244159173 -10.059722966724898 -0.000000128733809 0.141749348183463 -10.209687323863735 0.000000243442422 -0.00282389990178 -9.838554100578062 0.000000260437598 0.153808112293866 -10.097413131661428 0.000000460748835 0.133881810848976 -10.070392821580066 0.000000519205339 -0.076360030224427 -10.099317857129019 -0.000000073265223 0.049394817551117 -10.149415094314993 0.000000029988816 -0.070391399240898 -9.952996948971869 -0.000000372128415 -0.035057841657802 -9.972534610783493 0.000000033678718 -0.069382322161149 -9.949388888754868 -0.000000219381019 -0.066206668697326 -9.99680000183038 -0.000000143772714 -0.0672265507025 -10.05399464223796 -0.000000358419463 0.083391934761063 -9.934818302710383 0.00000028832744 0.007580601300299 -9.977700050674127 -0.000000176903638 0.068766113217558 -9.871603408298258 0.000000272053834 0.003934993154897 -10.083097292731635 -0.000000360330446 -0.015896620631805 -9.867306460698732 -0.000000478321753 0.043826730196561 -9.847241171002032 -0.000000046656534 0.035920364701854 -10.12226298542879 0.000000099816419 -0.111953262955805 -10.035991894930659 -0.000000241996402 -0.205442294653626 -9.923487702092535 -0.000000285575933 0.223058822642179 -10.133164305485135 0.00000073166692 0.029758789633283 -10.063569406980509 0.000000307911146 0.019277156619568 -9.8390190974142 -0.000000107236702 0.020383471553928 -9.900010325823539 0.000000209764359 0.135382498196903 -9.929573784913512 0.00000057605107 0.006970514154752 -9.993813979598967 0.000000146666563 0.209466547312334 -10.003442714904605 0.000000772530606 -0.034890157185006 -9.965741943685201 -0.000000061454124 0.074667618326819 -10.125660013896624 0.000000057588315 0.061605399390522 -10.128867839112813 0.000000188716922 0.115381173765329 -10.10531994357487 0.000000373496435 -0.072200143906882 -10.113243585649609 -0.000000296975532 -0.064442776793408 -9.979865287585257 -0.000000203130603 -0.119286391443517 -9.93477022514266 -0.000000376781698 0.001096114070277 -9.95164141333106 -0.000000077421107 -0.175044732840128 -9.963300143154573 -0.000000582798543 0.033818425010487 -10.059638674692572 -0.000000120533124 -0.075463018303359 -9.755127664866006 -0.000000038377625 0.066529185038533 -10.007345051746789 0.000000295194909 -0.043701154614898 -9.907159600823405 -0.000000058653683 -0.168942447074525 -9.892701852432911 -0.000000406839291 0.062337877331036 -10.049811233657449 0.000000224980707 0.203240211751778 -10.019713286648406 0.00000080608834 -0.017854637581746 -10.19309872910795 0.000000206046386 0.057708958247039 -10.086039413755318 0.000000460770369 0.011611282706177 -10.04474068130207 0.00000018090041 -0.074039453668574 -9.83033965712999 -0.000000156161605 0.141395550445499 -9.888116580785104 0.000000447809031 -0.052003306392438 -10.10726622601778 -0.00000049216006 0.136178065673426 -9.841301180976929 0.000000490990923 0.119353064796061 -10.088776031873206 0.000000157016278 0.064952991121838 -10.080438631029402 -0.000000010093337 0.053103317306338 -9.976698700173438 0.000000096094009 0.079507183942489 -10.126022391693938 0.000000248105295 0.006830597520047 -10.086821074512885 -0.000000248220459 -0.035884865693914 -9.943466191842219 -0.000000342584477 0.027921674698823 -10.060937492525627 0.000000054338756 -0.082573258892582 -10.029399151667153 -0.000000505249252 0.151489024581945 -9.815894880401901 0.000000286560771 0.097505102289675 -10.123648746493902 0.00000021242453 0.095665996137964 -10.073402852938552 0.000000306103924 -0.056580110992148 -10.103039185753754 -0.000000154500508 0.09835735426006 -10.050624715335552 0.000000258341931 -0.131746823293931 -10.026832590579998 -0.000000440076434 0.10255337683971 -9.922924753910859 0.000000249394268 -0.073974022311462 -9.963728693447303 -0.000000248238259 -0.05613853750883 -9.867463265556594 -0.000000004434004 0.039897681881041 -10.032674466436035 -0.000000087743104 0.142192057575483 -9.976726692642716 0.000000685955423 -0.028180285786666 -9.943712726768714 -0.000000014968454 -0.006679384441429 -9.725810829574275 0.000000032818599 -0.075803229339323 -10.050802064282772 -0.000000358677299 0.112340492858983 -10.002371085444864 0.000000001060272 -0.012330986182039 -9.881568848331275 -0.000000363317025 -0.003596250597859 -10.187078567690474 -0.000000675751293 -0.095575425483113 -9.944593697773064 -0.000000931299172 0.042471848160621 -10.068349175476413 -0.000000774061303 0.250412089946719 -10.017427613316558 -0.000000248952269 0.076180295734616 -9.949486115001283 0.000000048473973 -0.060890438505075 -10.052605965986716 -0.000000256279786 -0.000410492200748 -10.105391523296964 -0.00000016370267 -0.094089122698915 -10.036295392444337 -0.000000158070752 -0.019927372447552 -9.950880113099325 -0.000000163083147 0.076497801231345 -9.977145449866628 0.000000181001317 0.040138691038283 -9.962084949464673 0.000000121502304 -0.005006809221558 -10.210472752646155 0.000000054471734 -0.108745724317787 -9.836560154277697 -0.000000783612964 0.065680513310314 -10.145434781223836 0.000000338067361 -0.078785806780866 -9.970423759410657 -0.00000065220687 -0.089692987584632 -10.139219236290046 -0.000000104787848 -0.026712252393958 -10.06477066864864 -0.000000278786884 -0.011740666995394 -9.929810936858759 -0.000000124829145 0.056053069734061 -10.157307402530508 0.000000038045479 0.072633183068752 -9.880231488499062 0.000000491108448 -0.004501987831681 -10.12271982969038 -0.000000057360781 0.088190269415729 -9.971072272992908 0.000000573099949 0.008857715687047 -10.146080132898502 -0.000000108568809 0.159221634806727 -10.204131422474251 0.000000783313533 0.115382432476723 -10.036932068849719 0.000000289578513 -0.114607361992052 -10.077991949675525 -0.000000117476969 0.135156228021542 -9.918302158152789 0.000000340208821 0.069980196510247 -9.932230504569885 0.000000454774673 -0.034618099679729 -10.064639963080593 0.000000097535262 0.06791631408692 -9.958970627337962 0.000000596990672 -0.061950386909083 -10.006964019899023 -0.000000067929879 -0.146876148421721 -10.01358169201565 0.000000432694004 -0.081670070189557 -10.023557983064 0.000000423819825 -0.1293835817291 -9.898430446300829 0.000000481164684 0.02543245802609 -10.029327756757171 0.00000094667612 -0.022390632904032 -9.851286062689546 -0.000000218873376 0.183179891813818 -10.054766642756821 0.000000469786341 -0.096392143496882 -9.977317930838275 -0.000000519991954 0.249572352264744 -9.905112033820709 0.000000636005511 0.118544315420316 -10.172214376936802 0.000000115843077 -0.033504860485112 -9.933453293663931 -0.000000337071252 -0.009086296198112 -10.128116862616523 -0.000000102627894 0.237660072282352 -9.944234369049155 0.000000650580075 0.169230947374215 -9.863132624482244 0.000000441697199 -0.051049914241816 -9.936790719404804 -0.000000398494621 -0.010263684169437 -10.15422514453963 0.00000020910115 0.084834676245724 -10.054294291561083 0.000000155507398 -0.032551863865441 -9.913787073648516 -0.000000191000609 -0.052673369952214 -9.893507625318394 -0.00000066692085 0.009123537292062 -10.026572497794854 0.000000040485288 -0.072394706884195 -9.916947587236757 -0.000000654964906 0.040410108330947 -9.892183017364992 0.000000290876457 -0.070753970525383 -10.102883321181965 -0.000000413584419 -0.124231757386283 -9.953738949889155 -0.000000503296773 -0.072232378765877 -9.967691672465168 -0.000000252713631 0.091434884937074 -9.928913389414824 0.000000113688482 -0.128877713780928 -10.042499029648742 -0.000000557357534 -0.182321852728421 -10.065262839284239 -0.000000614859252 -0.134893954779839 -10.057297920258293 -0.000001392770465 0.011454108508317 -10.12040381976634 -0.000000582196492 0.003445086982515 -10.030246567327996 -0.000003288926191 -0.148892726811709 -10.146418733456452 -0.000003502809332 -0.088564474832685 -9.892295178607053 -0.000009007961122 -0.128189061141684 -9.919599336211839 -0.000009477373926 0.010116928117952 -9.91972120712512 -0.000013978036517 0.058658155808296 -9.901299852897905 -0.000014081094774 0.11278371425492 -10.107180263057829 0.000000303676601 0.011600923186465 -9.878977002090277 0.00000025437745 0.127219305413554 -9.846749568815635 0.000000411829617 0.04636672265211 -10.248629516142849 0.000000071463928 -0.086531201418252 -9.862612342221759 -0.000000407384253 0.102767486576999 -9.939483322639413 0.000000329787097 -0.042264100687974 -9.982009345860897 -0.000000161475498 -0.118603753153518 -9.95483966652121 -0.000000377212251 0.175724382935317 -9.94049220426281 0.000000785075129 -0.088109235184003 -10.107856949641967 -0.000000363229638 0.039760572569088 -9.908499111859351 0.000000196655088 -0.104304120845306 -10.051903805926859 -0.000000203355337 0.035025628278513 -9.920673239604412 0.000000052195762 0.108208062933383 -10.131821495007376 0.000000276671425 0.012703495383619 -10.01034626408614 -0.000000029054056 -0.122832655361758 -9.998759478178423 -0.000000570146501 0.095538444480012 -9.948988529565629 0.000000281729707 -0.079968294205085 -9.843782349318426 -0.00000023697071 0.107894437663317 -9.986134594064298 0.000000443118845 0.010529239374049 -9.980929671812749 0.000000000654374 0.008690282284687 -9.926785484093102 0.000000077488388 -0.03171750362647 -9.701915255911182 0.000000340376338 0.12433666956636 -9.96259480378874 0.000000512654959 0.046275849834785 -10.018619639270046 0.000001194046845 0.099574412830758 -9.97627311304041 0.000001259905349 0.068458451548533 -9.871190194098247 0.000003275903186 0.063208592456661 -9.932296028537447 0.00000325263695 -0.14838954310915 -9.935030361910426 0.000008680759056 -0.011161375370685 -10.126041192241237 0.000008860251609 0.031483228546258 -9.962092785111373 0.000014281748391 0.082715038897199 -9.962579754085189 0.000014287378206 -0.138129543938967 -9.823270891873605 -0.000000604811959 0.113564787659336 -9.829363667539292 -0.000000072812013 0.012821533244714 -10.116923133594208 0.000000197819555 0.007759431858082 -10.045852095090778 -0.000000365826619 0.189772373560221 -9.982861078044801 0.000000336553262 0.127403013317204 -9.994239952628105 0.000000264896603 -0.100946335316408 -10.002656378680449 -0.000000589345944 0.001461826368403 -10.063783734270917 -0.000000323833159 0.118889843404541 -10.04362081382258 0.000000136316494 0.209735511665494 -10.072945993783728 0.000000683828228 -0.108295959074171 -10.026435561364615 -0.000000382620994 -0.147485421114404 -10.054360813585383 -0.000000558961614 0.030473654346824 -9.870648829993195 0.000000100955645 0.214407060372554 -10.138092235156273 0.000000407710157 -0.000850741375779 -9.981392323950294 -0.000000081036254 0.170378112536766 -9.882267637918906 0.000000419579198 -0.06857303550386 -10.069263713045038 -0.000000206391049 0.020436377891962 -9.93354382631582 0.000000072656809 0.16889927294049 -10.026368383278756 0.000000505732952 -0.020126426716504 -9.885157699510938 0.000000001809794 0.033436463799586 -9.977630647398888 -0.000000036999519 -0.202605880734873 -9.955274117001419 -0.000001169593852 -0.150985760755526 -10.012063496564343 -0.00000069648404 0.063985035111371 -10.00482122610695 -0.000002531471683 -0.132912127813513 -10.017622617979583 -0.000003006830509 0.073456079506201 -9.930217251075469 -0.000023274305929 0.041303929659885 -10.024666749446324 -0.000023475978983 -0.168423728343806 -10.098229778629527 -0.000326856593159 0.200246542956705 -9.819710004564179 -0.000325982257176 0.04553977005168 -10.119879852274313 -0.001475273611704 -0.036432554131617 -10.220903924163313 -0.001475487473564 0.023878749053858 -9.935372320772657 0.000000030453529 -0.130504046079608 -9.951937060903678 -0.000000274604762 -0.050571796363275 -10.120370230514352 -0.000000316218488 0.173944017584265 -9.889965270653644 0.000000483157753 0.167537963252641 -9.908595879743979 0.000000736387349 -0.067424960487635 -9.990687987109384 -0.000000388919349 0.038225752840787 -10.154633778798146 0.000000279700481 0.051947297869193 -9.861368729449881 0.000000202887262 -0.126833187663794 -10.020183237355523 -0.000000525763564 -0.006027498122753 -9.855082847124539 0.000000277004532 0.009645302546849 -9.967692158350992 -0.000000025139242 -0.080022557709084 -10.048076614307497 -0.000000230374151 0.086638073860204 -10.030371683420949 0.000000160067604 0.042306076714407 -9.973773835420563 0.000000033027758 -0.018766737237515 -10.176072151097902 -0.000000147769825 0.096476165964322 -9.967501650494933 0.000000370884843 0.019631111810316 -9.961896704148126 0.000000002887806 -0.084741747341495 -10.058396455445925 -0.000000013846112 -0.050399426060222 -10.044972614881722 -0.000000330590977 0.043797898135362 -10.112415703425935 0.000000291436957 -0.045312670022869 -10.033068580291786 0.000000084165524 -0.05408574619372 -9.789438208587042 0.000000599273451 0.017655847904222 -10.066376035237186 0.000000383435231 -0.248711831874768 -10.008358206420604 0.000002028160264 -0.053662091924799 -10.175004126788894 0.00000251473428 -0.018161537122894 -9.970775959598122 0.000023620367465 0.028336319812538 -10.132268912816608 0.000023590532695 -0.04868650215152 -10.007825028280113 0.000326483719759 0.072430201588972 -9.941157890765016 0.000326848715924 -0.052388996492424 -9.998243186633015 0.001475254000268 -0.107760088968479 -9.939927818304506 0.001475142849532 0.121057032260487 -10.104445154443374 0.000000517520191 0.080227519315442 -9.969772114008533 0.000000169668955 -0.014442367060022 -10.040981009288775 0.000000034563592 0.061010547088297 -9.930615230664745 0.000000148482345 0.116002045457984 -9.893812258666539 0.000000369526543 0.061736014911887 -10.028569066681236 0.00000014993015 0.103078492186016 -10.08248919920408 0.000000362090314 0.051049542594683 -10.051307367689052 0.000000029120368 0.012169257045924 -10.05964603434089 0.00000003093375 -0.03935565861046 -10.055968432727855 -0.00000052070849 0.012717886647 -10.063071405242528 -0.000000053346307 -0.021340077459286 -10.167562372353704 -0.000000122555809 0.031272915447243 -10.119008987375672 -0.000000097444033 0.254021368446754 -10.071014457298038 0.000000545606065 0.081323087213674 -9.747825295651801 0.000000115273773 0.074105219793009 -10.088758461060868 -0.000000085320393 -0.136177522576301 -9.922859352475324 -0.000000431659061 0.002761466092466 -10.034968543410855 -0.000000367129229 0.056095609634037 -10.019819437179317 -0.000000203849082 -0.144777718557566 -9.988867153990762 -0.000000677855798 -0.083519291503496 -10.162646576469939 -0.000000784794868 0.136729598648093 -9.889712046007757 0.000000014874393 -0.041075148292957 -10.167424806166855 -0.000000806559232 0.123780591299192 -10.10181532603796 -0.000002623554627 -0.075476958752106 -9.931455140152881 -0.000003182516623 -0.112530888911759 -9.914903847448702 -0.000024703191542 0.107130297578307 -9.969076141450824 -0.000023913648555 -0.123316137115815 -9.884941744105937 -0.000327761266021 0.008889843512994 -9.879798374908193 -0.00032741479251 -0.085816563537602 -10.083742113624808 -0.000000181736572 -0.079405309893564 -9.997322425289301 -0.000000215845211 0.088056302901283 -9.974842300385857 0.000000243088685 0.012716300059446 -9.868335060873651 -0.000000329573579 -0.138750671790155 -10.124524808662564 -0.000000716035723 -0.019865970939591 -10.000506766604911 -0.000000234863103 -0.102864384193594 -9.896580506752111 -0.000000439259081 0.133465380704581 -9.996911647799246 0.000000301645927 -0.006289731365942 -10.081540852546727 0.00000029600675 -0.138344014832126 -10.007317095734843 -0.000000226424088 -0.026944660002648 -10.016544141305229 -0.00000008476449 0.152124197069754 -9.919933865914164 0.000000698812202 0.012380000873233 -10.011243321591342 -0.000000070247026 -0.015125104487388 -9.838222020719082 -0.000000187897393 0.052653777301988 -9.841632606457003 0.000000343957857 0.015691143063343 -9.972794691475363 0.000000053925104 -0.015297395510103 -9.989095484366775 -0.000000024570506 -0.079805016686261 -10.092411798156043 -0.000000087653449 0.094837323154205 -10.085621820771488 0.00000038469007 0.021761870481028 -10.033656032996721 0.000000568330984 -0.106049539666194 -9.871208967356795 0.00000008004164 -0.150253191902716 -10.226663680425361 0.000000588752383 0.11480125986139 -10.131169989948392 0.00000114545701 0.027010376170902 -10.099468347352476 0.000003386956964 -0.070972790586285 -10.020662237098136 0.000002957084119 -0.088034971423614 -9.961506999427762 0.000024156518144 0.039138686996317 -10.136875342879685 0.000024439117515 0.204628672679746 -9.96559402953258 0.000328054938136 -0.014891800770142 -9.963407681105862 0.000327367971661 0.031907609164535 -10.044960760561233 -0.000000070158622 -0.056218013613463 -9.998187551603896 -0.000000323886699 -0.046270166669445 -10.132525200159536 -0.000000235083 -0.016935756560533 -10.12154073165229 -0.000000175729362 -0.179540091555824 -10.062020311445261 -0.00000077239153 -0.10636920587216 -10.010836774660968 -0.000000249727436 0.10418027182634 -9.932714324558729 0.000000270635516 0.011008384970846 -10.131262056707133 -0.000000188322383 -0.167574937872174 -9.856099471126054 -0.000000646721512 0.096428398443537 -9.860439370077305 0.000000341559348 0.098243925110788 -10.232756307284312 0.000000064753053 0.124580401936738 -9.96998644800594 0.000000515920491 0.124487854231726 -10.054148810046668 0.000000352599878 -0.023597596526489 -10.08040948733548 -0.000000413466075 0.121986887184097 -10.044630523648344 0.000000278210619 0.002584558031633 -9.99546203861272 -0.000000302230065 0.028156421108229 -9.973274321139993 0.000000324345883 0.139431679970238 -9.912082515376778 0.000000284188829 0.030172829198618 -9.766949486413322 -0.000000130225614 0.008277569597876 -9.728328305133827 -0.000000187236456 0.14423218273771 -9.943804511747086 0.000000145173682 -0.065165080258259 -9.940555609186129 -0.000001580879205 0.070341188801228 -9.951918869237485 -0.000000830542643 -0.102563560163535 -9.945931807287776 -0.000004282081727 -0.031578325616132 -10.066555866535669 -0.00000379400129 -0.015445316073097 -10.175594125793504 -0.000011887080249 -0.090541749160876 -10.063665923942803 -0.000012356400717 0.015353268014987 -9.957378342619483 -0.000022889624858 -0.153126919934187 -9.995225201908806 -0.000023267570016 -0.07601562070041 -10.043618784994839 0.000000179629031 0.083744240764947 -9.801631213784997 0.000000350854592 0.047494306171575 -10.033976567989251 0.000000132480663 0.146714346766506 -9.890918159007905 0.000000337071462 0.043841700692677 -9.958738469022657 0.00000035649035 0.134388307550808 -9.825226968496818 0.00000044550401 0.072381523611105 -9.924696544433758 0.000000364783544 -0.020548804786439 -10.040317054923563 -0.000000120069756 -0.109327721244384 -10.047749320812589 -0.000000412217028 -0.097553400300841 -10.207721447307238 -0.000000293515742 0.027800607571347 -10.075250178148339 0.000000022165084 -0.03836680778291 -9.918685380704108 -0.000000394733458 0.023344139613791 -10.085877575952445 0.000000035243213 0.075291126628305 -9.938521421770037 0.000000017651108 -0.126615864655178 -10.16660976651192 -0.000000391710708 -0.069879971496464 -10.150510220089169 -0.000000017741479 0.01563024958771 -10.067726308943978 -0.000000022749474 0.089339295939292 -10.015096275175679 0.000000704994882 0.076210649177672 -9.965054085194863 0.000000262435003 -0.247817107862969 -10.178608089704367 -0.000000123779072 -0.073293724181318 -10.097303193973884 0.000000241038544 -0.152426107578145 -9.95396354019392 0.000001141275363 -0.038263527424435 -10.071956254457213 0.000001008358456 0.165880019832879 -10.013230387272623 0.00000447408025 -0.006391287393153 -10.139097412133525 0.000004073500767 -0.05821308657195 -10.089111478092704 0.000011655688971 -0.06086303213808 -9.910744072058684 0.000011915759962 0.107129008975055 -9.867512951749863 0.000023062984651 0.043496541875023 -9.796912193189096 0.000023256060419 -0.013319152919522 -9.87193159286308 -0.000000178570279 0.05955174439463 -9.967833024722953 0.00000035123537 -0.039341171579709 -10.127278850406983 -0.000000100524886 0.025882506277451 -10.026437146431768 0.000000140503256 0.11779201362292 -10.119476122679272 0.000000470615758 -0.210990718150047 -9.95510999423759 -0.000000546341554 -0.064531943100526 -9.788183940719996 -0.000000248502306 0.177864406074519 -10.032715956231218 0.00000040518131 0.001511928575837 -10.01815280453256 0.000000107258695 -0.061207276221653 -10.081588721499925 -0.00000020121787 0.183269364378958 -10.052981729989288 0.000000422240555 -0.121654466765262 -9.929377445630196 -0.00000050158563 -0.118266312228456 -10.06344945464401 -0.000000504817732 0.052735551222104 -10.270386931054228 0.000000077131416 -0.014585880902903 -10.041901869512699 -0.000000455055501 0.017933555317755 -10.181955024094718 -0.000000095167174 -0.109563267420427 -10.048205957860331 -0.000000512790991 -0.019562434385559 -9.886582015023944 -0.00000036141827 0.067000675643191 -9.895286876524434 -0.000000426581107 -0.032004463131325 -10.101224998199134 -0.000000864686051 -0.016879209914802 -10.09112758901624 -0.000001206898902 0.008828995235053 -9.958882050557325 -0.000003143655734 -0.045567995376621 -9.959514002913091 -0.000003329951189 -0.160902908162361 -10.089902035943046 -0.000024857521525 -0.240171337080388 -9.824652685717707 -0.000025406154426 -0.051532722814882 -10.009642322472351 -0.000328106716525 -0.061783978927143 -10.053792068722217 -0.000328242716048 0.127489246936755 -9.944092531770462 -0.001476609166711 -0.079962428441151 -10.006116980226981 -0.001476782542871 -0.232626210027242 -10.10238433707695 -0.000000724451593 0.034597211558954 -9.886007106065168 -0.000000094347889 0.029305608562503 -10.137800014822275 -0.000000104947984 0.104273518137541 -9.940658154034884 0.000000066910601 -0.050507429647164 -10.234853636078579 -0.000000281504407 -0.019512895369431 -9.940700541738074 -0.000000206092426 0.000343164331759 -10.019337778743122 -0.000000249421146 -0.087584338270294 -10.059784214379972 -0.000000272259747 0.07409267118494 -10.138345127680395 0.000000246409498 0.131170285031339 -10.088389721173629 0.000000469399264 0.067462391145088 -10.038961923914201 0.000000070762524 0.057775742493271 -9.808023135131705 0.000000224540338 0.044409752629033 -9.987962875275596 0.000000041577803 0.195507018399346 -10.095220775659726 0.00000074714777 -0.020481402178906 -9.936066805348318 -0.000000078003411 -0.046641330550529 -10.027396801846654 0.000000279257627 0.09159577278043 -10.06356739156619 0.000000336382844 -0.080862196800072 -9.940845682588391 0.000000231462319 0.033274847916884 -9.934576066301581 0.000000310497789 -0.10883021710574 -9.953145555054052 0.000001043703634 0.038297442293532 -9.91933761474322 0.000000915268971 -0.172788900982734 -9.963221363759427 0.000002955552629 -0.031888675640467 -9.96958643841981 0.000003070976587 -0.02578906271004 -10.036148324708183 0.000024246279159 -0.014637123679982 -9.888139200372089 0.000024814228631 0.222636968982719 -10.188789776635859 0.000328783172424 -0.011672581919736 -9.951056983752995 0.000328215388864 -0.04471777123395 -10.045251591592905 0.001476640710744 -0.128133731735782 -10.070706287844828 0.001476585807896 0.070447386739483 -9.978421687510005 0.00000020342827 -0.154225131134045 -9.865960836281713 -0.000000523269998 0.033694599949621 -10.234803703569449 0.000000135095693 0.001839612211158 -9.805465074832705 0.000000044416678 0.093151880347212 -9.848992654149233 0.000000159952313 0.004911921855367 -9.903475106781773 0.000000056473239 -0.113521557418641 -9.92303481790475 -0.000000626913226 0.175625103144917 -10.027919336223471 0.000000193662321 0.050413381571041 -10.056551984470998 -0.000000055434781 -0.123882782712566 -10.117612882284973 -0.000000444030074 0.048166574653513 -10.111063311566099 -0.000000228715206 -0.106466015533231 -10.024227288702827 -0.000000332477663 -0.128552969105257 -10.051253221680939 -0.000000410801968 0.033294605145279 -10.044384753464142 0.000000088189028 0.166641330011416 -9.979234571130945 0.000000378317717 0.015374079727988 -10.163807544636924 -0.000000126178247 -0.151266372733615 -9.977069254937936 -0.000000652067816 -0.146578903595624 -10.045893536227597 -0.000001072422503 0.170266124798783 -10.016460771188585 -0.00000051341135 -0.089207992774364 -10.00801280252024 -0.000002021932395 0.080174846166756 -10.133666349001111 -0.000001912370012 -0.089911488842275 -10.06998681091248 -0.00000700387057 -0.220972150868265 -10.178747858683343 -0.000007488794995 -0.168056163948287 -9.926642358563475 -0.00003361103132 0.106545970378404 -9.99551315292352 -0.000032922909259 0.016179183354098 -9.995265958432983 -0.000341294644981 0.125679909280854 -10.045894463313314 -0.000340772684493 0.017702237015049 -10.202338331607455 0.00000019489471 0.076165871147649 -9.86615781181087 0.00000020570263 0.111355121756628 -9.989700802994046 0.000000134637746 0.018450841969537 -10.087631844524566 0.00000027069834 0.03347860260977 -10.013084632808301 0.000000120878665 0.009162970942875 -10.054706871116531 0.000000061935491 0.148384091177937 -9.990846306985397 0.000000395592352 0.076383430249106 -10.013099152868689 0.000000264538777 0.035926869094786 -10.045661001148648 0.000000031526519 0.076452279369105 -10.099579405162142 -0.000000025002702 0.133024750796214 -10.011243570941909 0.000000505894081 0.011431991921236 -9.853695092748239 0.00000024771735 0.048205484739259 -10.176658993318918 0.000000229730955 -0.061094344692307 -10.07426808531968 -0.00000013327505 0.146153695033385 -9.925480085284534 0.000000815002652 -0.106117287265608 -9.93440747564086 0.000000036293775 0.094306198369737 -9.903437222304751 0.000000513228589 -0.136020830665615 -9.897900250841381 0.000000371162023 0.036582476788697 -9.95377915206484 0.