<?xml version="1.0" encoding="UTF-8" standalone="no" ?>
<VTKFile byte_order="LittleEndian" type="UnstructuredGrid" version="0.1">

  <UnstructuredGrid>
    <Piece NumberOfCells="0" NumberOfPoints="801">
      <PointData>
        <DataArray Name="mass" NumberOfComponents="1" format="ascii" type="Float32">1 1 1 1 1 1 1 1 1 1 1 1 1 1 1 1 1 1 1 1 1 1 1 1 1 1 1 1 1 1 1 1 1 1 1 1 1 1 1 1 1 1 1 1 1 1 1 1 1 1 1 1 1 1 1 1 1 1 1 1 1 1 1 1 1 1 1 1 1 1 1 1 1 1 1 1 1 1 1 1 1 1 1 1 1 1 1 1 1 1 1 1 1 1 1 1 1 1 1 1 1 1 1 1 1 1 1 1 1 1 1 1 1 1 1 1 1 1 1 1 1 1 1 1 1 1 1 1 1 1 1 1 1 1 1 1 1 1 1 1 1 1 1 1 1 1 1 1 1 1 1 1 1 1 1 1 1 1 1 1 1 1 1 1 1 1 1 1 1 1 1 1 1 1 1 1 1 1 1 1 1 1 1 1 1 1 1 1 1 1 1 1 1 1 1 1 1 1 1 1 1 1 1 1 1 1 1 1 1 1 1 1 1 1 1 1 1 1 1 1 1 1 1 1 1 1 1 1 1 1 1 1 1 1 1 1 1 1 1 1 1 1 1 1 1 1 1 1 1 1 1 1 1 1 1 1 1 1 1 1 1 1 1 1 1 1 1 1 1 1 1 1 1 1 1 1 1 1 1 1 1 1 1 1 1 1 1 1 1 1 1 1 1 1 1 1 1 1 1 1 1 1 1 1 1 1 1 1 1 1 1 1 1 1 1 1 1 1 1 1 1 1 1 1 1 1 1 1 1 1 1 1 1 1 1 1 1 1 1 1 1 1 1 1 1 1 1 1 1 1 1 1 1 1 1 1 1 1 1 1 1 1 1 1 1 1 1 1 1 1 1 1 1 1 1 1 1 1 1 1 1 1 1 1 1 1 1 1 1 1 1 1 1 1 1 1 1 1 1 1 1 1 1 1 1 1 1 1 1 1 1 1 1 1 1 1 1 1 1 1 1 1 1 1 1 1 1 1 1 1 1 1 1 1 1 1 1 1 1 1 1 1 1 1 1 1 1 1 1 1 1 1 1 1 1 1 1 1 1 1 1 1 1 1 1 1 1 1 1 1 1 1 1 1 1 1 1 1 1 1 1 1 1 1 1 1 1 1 1 1 1 1 1 1 1 1 1 1 1 1 1 1 1 1 1 1 1 1 1 1 1 1 1 1 1 1 1 1 1 1 1 1 1 1 1 1 1 1 1 1 1 1 1 1 1 1 1 1 1 1 1 1 1 1 1 1 1 1 1 1 1 1 1 1 1 1 1 1 1 1 1 1 1 1 1 1 1 1 1 1 1 1 1 1 1 1 1 1 1 1 1 1 1 1 1 1 1 1 1 1 1 1 1 1 1 1 1 1 1 1 1 1 1 1 1 1 1 1 1 1 1 1 1 1 1 1 1 1 1 1 1 1 1 1 1 1 1 1 1 1 1 1 1 1 1 1 1 1 1 1 1 1 1 1 1 1 1 1 1 1 1 1 1 1 1 1 1 1 1 1 1 1 1 1 1 1 1 1 1 1 1 1 1 1 1 1 1 1 1 1 1 1 1 1 1 1 1 1 1 1 1 1 1 1 1 1 1 1 1 1 1 1 1 1 1 1 1 1 1 1 1 1 1 1 1 1 1 1 1 1 1 1 1 1 1 1 1 1 1 1 1 1 1 1 1 1 1 1 1 1 1 1 1 1 1 1 1 1 1 1 1 1 1 1 1 1 1 1 1 1 1 1 1 1 1 1 1 1 1 1 1 1 1 1 1 1 1 1 1 1 1 1 1 1 1 1 1 1 1 1 1 1 1 1 1 1 1 1 1 1 1</DataArray>
        <DataArray Name="velocity" NumberOfComponents="3" format="ascii" type="Float32">0.111252371710622 -10.033450983059669 0.000038026390128 0.060808253449331 -9.936436373026595 0.000007965997777 -0.071212854125211 -9.884256603917668 -0.000010671040912 -0.171911323093036 -9.958229308251417 -0.000027219495238 -0.040044904795894 -9.772784855756282 -0.000054845671059 -0.227231476482098 -9.977367250664901 -0.000087126101103 0.08664404723082 -9.861358848163476 0.000017831014703 -0.103276016606293 -9.969476005620177 -0.000030448353767 -0.035851069096408 -9.969090054241864 -0.000045895640444 -0.111405948898184 -10.03239906960504 -0.000037666334738 0.00470268918509 -9.876358528568469 -0.000060637763564 0.084498228584131 -10.151610092930362 0.00002194419058 0.222449841337605 -9.960119375939275 0.000052636708623 -0.000649059332594 -9.953116560699883 -0.000009290217245 -0.075005754405861 -9.902225389818264 -0.000033695606806 0.015422166648129 -9.845896501014428 -0.000002507122201 -0.022801892767024 -9.911229722464013 -0.000006748604565 -0.132874998066406 -10.088752657838054 -0.000049943325217 0.005400880524301 -10.085304252965301 -0.000022474274657 -0.1062035876684 -9.944871181464428 -0.000001659973838 0.078701430885931 -10.030466103822491 0.00001734826348 -0.006939735881261 -10.070411869150082 0.00002355321196 -0.170541448235142 -9.970402538784422 -0.00006573358743 -0.064109661301067 -9.868083836777704 -0.000009578655438 0.015584261749251 -9.793099171944524 0.000033372262608 0.003856605540365 -10.055471513829751 -0.000000950984824 -0.010574861732505 -9.925892037172954 -0.000034770286603 0.031933051639999 -9.98819616727106 0.00001406267875 -0.089152819736721 -9.898794807641769 -0.000057912455189 0.13174679675321 -10.147373480764852 0.000046319856172 0.050575842261702 -10.078373271800418 0.000021314351673 -0.015961787857226 -9.899813427101801 -0.000038776748543 0.097426309500531 -10.048766207631147 0.000037087982838 -0.024262777015835 -9.964638002305174 -0.000034806171423 -0.107423454143965 -9.867009345202527 -0.000033069022541 0.052894476455741 -9.989335086269598 0.000003900516144 0.039727048797303 -9.909147194334658 0.000042085965546 -0.011120246209548 -9.92245366669753 -0.000019716394539 -0.039477458066362 -9.878957169134027 0.000004033031608 0.026465854344929 -9.941563717076924 0.000020201487573 -0.009235379431386 -10.14860557937655 -0.000004756565474 0.194125244376 -10.092844945896703 0.000074254859441 0.079943064128291 -10.146380185972065 -0.000001323820054 0.101145852083272 -10.06817785006646 -0.000003460528473 -0.029016694954985 -10.150241898037233 -0.000020253138974 -0.083416295821074 -10.058803955181796 -0.000015187745049 0.141767155893049 -10.208955241066905 0.000030101298951 -0.002798054250601 -9.840478482380366 0.000032142711628 0.153843929954229 -10.097905857023552 0.00005674762557 0.133924899136708 -10.069745000253592 0.000063902563312 -0.076362981804773 -10.098685926617449 -0.000007000032295 0.049396655049143 -10.148315374320838 0.000005507651607 -0.07042066222442 -9.953628686753213 -0.000041660060829 -0.035053179854512 -9.97337788356759 0.000007399635387 -0.069395412100167 -9.949896763062483 -0.000020784642424 -0.066214176410276 -9.996366985640762 -0.000011632599332 -0.06724807134366 -10.053546126256014 -0.000034216287762 0.083422648671416 -9.934486759011364 0.000044039002164 0.007574218980604 -9.981733577658307 -0.000008908938032 0.068798123684146 -9.868591199712386 0.000045447899366 0.003912226426496 -10.092385783937877 -0.000029637673189 -0.01592806502838 -9.857598568598883 -0.000043865595887 0.043821944776633 -9.849228771182728 -0.000005734160878 0.035926200460166 -10.120231620082203 0.000011986408948 -0.111969367839502 -10.035611890671992 -0.000029378686058 -0.205462921448667 -9.924925237602812 -0.000034658519432 0.223118487041959 -10.131476666285446 0.000088450520877 0.029783505237491 -10.062268195243922 0.000037212747605 0.019264654057804 -9.840667156591808 -0.000013069031191 0.020399390492895 -9.901114389788278 0.000025287703233 0.135430757880731 -9.929493289725018 0.000069560294102 0.006984398922561 -9.993296875439993 0.000017574272866 0.209531380394672 -10.003641429560522 0.000093252752277 -0.034894623014342 -9.966576950881102 -0.000007683615234 0.07467248882435 -10.125064354372917 0.000006723598743 0.061620211611915 -10.128094650395219 0.00002245493141 0.115413212147641 -10.104878355449321 0.000044833524296 -0.072225338842486 -10.112541311763511 -0.000036585012621 -0.064460795118777 -9.980272451893841 -0.00002520151449 -0.119318753255166 -9.935653139296836 -0.00004671552678 0.001088212123564 -9.952224089831434 -0.000010421997688 -0.175094649025503 -9.962312547055189 -0.000072460292761 0.033804730927397 -10.058959028663539 -0.000016455037004 -0.075466608270679 -9.756687067718714 -0.000007986098395 0.066554249017807 -10.007053208530492 0.000032418092891 -0.043709594162851 -9.907166071624195 -0.00001287580568 -0.168977546355732 -9.893653762406577 -0.000054989799843 0.062350140006401 -10.050150293830718 0.000018083531528 0.203297955925834 -10.019136896014546 0.000088388811453 -0.01784445596157 -10.195116763448791 0.000012391294781 0.057738530407799 -10.081397139040273 0.000043239814462 0.01161710435261 -10.055104836468992 0.000007913412332 -0.07406319406587 -9.821715119131417 -0.000032867860931 0.141433446864685 -9.888847844395361 0.000054349384959 -0.052044064159267 -10.106268280596131 -0.00005935849137 0.136217086240025 -9.842504692270774 0.000059613101812 0.119365900507481 -10.088370482011355 0.000019158907395 0.064950262358016 -10.079629659937444 -0.000001031621964 0.053111995507142 -9.977641877716334 0.000011851164097 0.079530368302944 -10.125048480930408 0.00003024181342 0.006808409312998 -10.086236034675748 -0.000029717991265 -0.035912054310499 -9.944605070811066 -0.000041148327735 0.027926748873016 -10.060008009239622 0.000006953975618 -0.082613728842222 -10.02944941613684 -0.000060800377066 0.15151105348491 -9.818043026847352 0.000035216256248 0.09752238037571 -10.123151196440219 0.000026255233705 0.095691006214082 -10.072190334232307 0.000037898846358 -0.05659318410222 -10.102804800369009 -0.00001784042679 0.098380907175027 -10.050183242212016 0.000032712788829 -0.131780937222804 -10.026880384662057 -0.000051816633404 0.102576397101229 -9.923242360302035 0.000032808132284 -0.073990560480229 -9.964291156818323 -0.000027462971867 -0.056133870275695 -9.868179968365586 0.000004632979676 0.039890550499296 -10.0319913672592 -0.000005466230818 0.142257509599469 -9.975213600235163 0.000093875863419 -0.02817605727742 -9.944528753111955 0.00000906042342 -0.006661530791926 -9.728127915444757 0.000027492251041 -0.075818300675102 -10.049559804182724 -0.000019882423479 0.112371414152568 -10.002300565946292 0.000048290588512 -0.012327884555362 -9.882249032389595 0.000004200040675 -0.003599166228304 -10.189033388340974 -0.000000092034827 -0.095596595040039 -9.941364932355516 -0.000031037395318 0.042474226527513 -10.078594127010906 0.000005788000452 0.250457353143276 -10.007369032540163 0.000069304008782 0.07618305145609 -9.950594015922617 0.000005694596654 -0.060912059333499 -10.052088871551142 -0.00003118433099 -0.000426964506982 -10.104055834696837 -0.000019936711809 -0.094101170205646 -10.036115956495717 -0.000019306833338 -0.019939289444874 -9.951591254603116 -0.000019901740407 0.076513023141191 -9.97840702582201 0.000021665587255 0.040151258886794 -9.961498981429061 0.00001445971075 -0.005004248466393 -10.209189300431939 0.000006299235942 -0.10881294007768 -9.837660027292891 -0.000095096488322 0.065707736239521 -10.145693686489043 0.000040517572185 -0.078841210516049 -9.970249474850814 -0.000079247181658 -0.089699617421121 -10.138352670922735 -0.000013231103724 -0.02673554985077 -10.064768017942024 -0.000034266845569 -0.011751172544043 -9.930492925204359 -0.000015965475502 0.056056124377188 -10.156776074389411 0.000003751053361 0.072673929252974 -9.880829540208605 0.00005798409271 -0.004506197062717 -10.122967722327736 -0.000008380199413 0.088234360147786 -9.971675324228196 0.000066763435564 0.008846415591649 -10.14550551634683 -0.000015754078324 0.159282121321223 -10.202613652724121 0.00008968989001 0.115402251853563 -10.036881396893675 0.000029900269315 -0.114622732580816 -10.077915561738953 -0.00002505885095 0.135176720339427 -9.919415761982959 0.000030317700451 0.070002445611038 -9.933032764299142 0.00003152840555 -0.034624031651198 -10.063695989953702 -0.000011721711101 0.06793468486248 -9.959415873207798 0.000024064782711 -0.061988458727593 -10.006948639289359 -0.000056352117215 -0.146893656606707 -10.016122918423001 -0.000029311491256 -0.081687259161196 -10.02027113281196 -0.000030382017327 -0.129411847008429 -9.908657849950492 -0.000041217079925 0.025444742856967 -10.019555359007928 0.000015101749944 -0.022411419949114 -9.852688424671243 -0.00002620293963 0.18321846811106 -10.053261953006507 0.000057111452914 -0.096433234358826 -9.977598667298258 -0.000062671104358 0.249626292624712 -9.905875237821341 0.000077281635104 0.118555118658875 -10.171209145967818 0.00001431382105 -0.033532197433243 -9.933374520153604 -0.000040407785896 -0.009096075802978 -10.127167534352678 -0.000012035535228 0.237714640269352 -9.944162694869869 0.000079199729914 0.1692657098949 -9.865495158520181 0.0000538867113 -0.051081570412306 -9.937326955981147 -0.000047552574936 -0.010241519079046 -10.151965236121729 0.000025933116993 0.084849328549286 -10.053100296423539 0.000019783675238 -0.032566472726514 -9.91529989044658 -0.000022192801219 -0.052730842653136 -9.894307902286508 -0.000079214607313 0.009125405971762 -10.025512552771675 0.000006369129896 -0.072447733666209 -9.917639959365363 -0.000076661157001 0.040435294713709 -9.893018936765117 0.000037750309944 -0.070783921082298 -10.101513229299348 -0.000045067952603 -0.124269923672688 -9.95336411297597 -0.00005584729958 -0.072245396871963 -9.968583693490681 -0.000019261317911 0.091450292244333 -9.929597691967791 0.000025076557442 -0.128901310475508 -10.04226976338326 -0.000037202910186 -0.18235135367806 -10.064893346528661 -0.000044111940747 -0.134945725947442 -10.057196097920107 -0.00007229723272 0.011469362148882 -10.120209307979682 0.000025760455975 0.003390008672754 -10.030119073820865 -0.000063614095033 -0.148960726904812 -10.14497495588234 -0.00008949011639 -0.088659886356141 -9.896307418933326 -0.000110181847021 -0.12832541790186 -9.917193881139518 -0.000166911676869 0.009976416560845 -9.929350739498263 -0.000155624472806 0.058507229986112 -9.891659954874013 -0.000168104839711 0.112807668976891 -10.105084453005167 0.00003645731906 0.011624533508666 -9.88153969512029 0.000030491095363 0.127252982373159 -9.847956190507514 0.000049556079841 0.046371430102859 -10.245727048880605 0.000008370301991 -0.086563051777543 -9.863040371837258 -0.000049654435537 0.102795136648775 -9.940857437981752 0.00003952892878 -0.042276150044092 -9.981331226506173 -0.000019906214828 -0.118632986353067 -9.955427674246296 -0.000046142914654 0.175787881205446 -9.940530396097026 0.000094544222119 -0.088140817241292 -10.106960330343226 -0.000044567115699 0.039774549155562 -9.908685793219332 0.000023182163279 -0.104323380335411 -10.052492875068108 -0.000025525411347 0.035029445232683 -9.920999369891122 0.000005386982801 0.108227190482059 -10.130913459354975 0.000032021250938 0.012699473417262 -10.009710934018397 -0.000004975706679 -0.122881582597647 -9.998667677962425 -0.000071560784031 0.095558970429554 -9.949404952993165 0.000031537987289 -0.079988968835051 -9.845035147690149 -0.000033675322727 0.107929186995885 -9.985718867046115 0.000048600617572 0.010522944349324 -9.979178709323921 -0.000011250218827 0.008691410682583 -9.927181249093707 -0.000001936989894 -0.031709755994715 -9.70448098777465 0.000010909008633 0.124358984818071 -9.962475259513186 0.000031716165967 0.046309299128144 -10.016706011246425 0.000048235688272 0.099614975814561 -9.975961815505704 0.000056256004931 0.068507623726249 -9.87243174295979 0.000062020251331 0.063255196176536 -9.932962727382279 0.000059249037862 -0.148319232122044 -9.938170570042058 0.000070582169801 -0.011077718203179 -10.121210180707012 0.000092312000385 0.031649638019331 -9.971715849680843 0.000192377670667 0.082882558141085 -9.95354235172862 0.000193024704495 -0.138178284000891 -9.824527702748441 -0.000072763583079 0.113557182877774 -9.830260854928177 -0.00000836828524 0.012841976958201 -10.115114087917476 0.000024344354782 0.007729305295519 -10.044700857701146 -0.000043840715122 0.189799558775805 -9.983522457934269 0.000041194729549 0.127427081305265 -9.994760345147835 0.000032607883864 -0.100997074551233 -10.00275542497517 -0.000070727680008 0.001434043259923 -10.063523632874841 -0.000038504764704 0.118900993773812 -10.043368421092934 0.000017214406299 0.209793601897384 -10.072825893333114 0.000083742513657 -0.108326580202173 -10.025844471124353 -0.000045307678926 -0.147529278465632 -10.054817549613011 -0.000066221081854 0.030484706351695 -9.871784651441226 0.000013636965805 0.214441514987196 -10.136656350773203 0.00005158149776 -0.000855234372139 -9.981290722457189 -0.000007517799986 0.170412847478167 -9.883564324808408 0.000054826004255 -0.068588822204783 -10.068701593543338 -0.000020878864423 0.020446431327948 -9.933121397344236 0.000017010128472 0.16894395084628 -10.026338964416068 0.000069357462297 -0.020111962339878 -9.885676280638824 0.000020133731815 0.033444907934861 -9.977974569150666 0.000015422643412 -0.202659984453789 -9.955223396380999 -0.000078015402315 -0.150996147315004 -10.011910685574769 -0.000020835144201 0.063976518231595 -10.004423721759219 -0.000001432680076 -0.132956097229512 -10.017495978924252 -0.0000589404478 0.073251066316661 -9.932010255088251 -0.000213395100367 0.041080306164976 -10.022989560870183 -0.000237827366919 -0.171703036580899 -10.10405830856798 -0.003614879614167 0.197035809369288 -9.815811760966255 -0.003509134963361 0.030792716468882 -10.129531744208515 -0.016218265760867 -0.05119636928526 -10.209474936633077 -0.016244128781686 0.023882063947991 -9.936242275026252 0.000003271043017 -0.130523361865986 -9.951587156711195 -0.000033649131412 -0.050598095862643 -10.118669574507489 -0.000038705360909 0.173983090513331 -9.890669170258883 0.000057947519286 0.167597347444427 -9.910550232997148 0.000088631367634 -0.067460707025007 -9.989700151057743 -0.000047592246261 0.038248766871754 -10.153009356594707 0.000033280397445 0.05196407389869 -9.861885650270059 0.000023855055011 -0.126875920735934 -10.020540073902223 -0.000064305466013 -0.006002575060919 -9.855943287632297 0.000032530019358 0.009642634635567 -9.968179538191812 -0.00000402183471 -0.080040945684392 -10.046934241548842 -0.000029356952436 0.086647374965312 -10.030726718795412 0.00001793030452 0.042305154237359 -9.97406779245323 0.000001692612077 -0.018780738275335 -10.174527644949908 -0.000020164755888 0.096500309688434 -9.967914905850725 0.000040857183411 0.019630535347733 -9.963165956213693 -0.000003727137578 -0.084748618683627 -10.058248869555671 -0.000009899767989 -0.050433132192276 -10.04456618645008 -0.00004820177794 0.043805216262086 -10.110839849464138 0.000015385804925 -0.045316987876391 -10.033238211004582 -0.000009717888172 -0.05407627694065 -9.791770383409094 0.000009093003092 0.017644994913998 -10.066665710073089 -0.000017064115505 -0.24874248723607 -10.007393574109692 -0.000059497101506 -0.053654631184249 -10.174229477385209 -0.000000606377931 -0.017927847134405 -9.971846649184499 0.000255296442913 0.028564825183217 -10.130873471753816 0.000251676688825 -0.045436335760645 -10.014090555908963 0.003569709983869 0.075709944960351 -9.935508056238682 0.003613918185246 -0.037643474462716 -10.008033331740874 0.016215914731957 -0.093022992315177 -9.930186313954311 0.016202477278326 0.121101694039132 -10.103597195074348 0.00006322910462 0.080240367949713 -9.970163571997221 0.000021218314069 -0.014437742658176 -10.040643571588047 0.000004824972161 0.061022506166792 -9.931205060066516 0.000018699145129 0.116033761306177 -9.8952343984995 0.000045504430161 0.061748596635248 -10.028243374337089 0.000019018285083 0.103110179969677 -10.081585536680389 0.000044666837349 0.051051396336896 -10.051240814109141 0.000004629560102 0.012171176166084 -10.059751789043334 0.00000486265951 -0.039399014039578 -10.056426767171297 -0.000061540989246 0.012712573822272 -10.063303119238235 -0.00000495901224 -0.021345776751276 -10.166670216733017 -0.000012633630444 0.031265998918774 -10.117161310666313 -0.000009572481199 0.254068062401807 -10.071504239292087 0.000069605473615 0.08133625685503 -9.75016820823561 0.000017468329536 0.074101410803124 -10.088458538050842 -0.000004074609266 -0.136204568337715 -9.922529828970106 -0.000045984270275 0.002738026098745 -10.035013910895232 -0.000032024553811 0.056085175655862 -10.020000989986945 -0.000012300097759 -0.144813089648381 -9.988643151833521 -0.000053357026318 -0.083567085711245 -10.162041723539501 -0.000066240722402 0.136786104665211 -9.891095067061798 0.000084601054115 -0.041086615064895 -10.166339245823266 -0.000014761128825 0.123791726387459 -10.100364977704489 0.000028376645799 -0.075511613615005 -9.932383769581852 -0.000039297515791 -0.11280678414182 -9.918398772324514 -0.000315331108756 0.106918672790202 -9.965728269822758 -0.000219724446858 -0.126616912238365 -9.891588759777205 -0.003637114541111 0.005621681394797 -9.873647536146535 -0.003595243776377 -0.085831355180448 -10.082907912915623 -0.000022625735777 -0.079421362723409 -9.99713406808014 -0.000026776791067 0.088074653053417 -9.975954339078115 0.00002876684352 0.012687188360023 -9.869444577107434 -0.000040608479922 -0.138811362940412 -10.122897434882349 -0.000087350286519 -0.019887704299223 -9.999923195696574 -0.000029297742369 -0.102900827184042 -9.898351019963254 -0.000054038053648 0.133485734785403 -9.996979610577238 0.000035409535697 -0.006262873718674 -10.080477544478263 0.000034718306511 -0.138360288719762 -10.006906430270753 -0.000028900281685 -0.026952789107834 -10.016799925892792 -0.000011754902014 0.152182709108035 -9.919954438537141 0.000082328896008 0.012371020330189 -10.010531853466361 -0.000010713025945 -0.015146009135674 -9.839143642935381 -0.000026278663786 0.052680840277586 -9.842994271495764 0.00003804914738 0.015691981171839 -9.972734760872425 0.00000028253004 -0.015304249847974 -9.988879416008023 -0.000009213101855 -0.079820187870429 -10.091656550332646 -0.000023022029147 0.094860751954283 -10.084280925323021 0.000034181506531 0.021789439634664 -10.034770441402953 0.000040051269692 -0.10606029236491 -9.87321153035013 -0.000018991071576 -0.150258291638328 -10.225318793660183 -0.000011605172924 0.114839491187527 -10.129543549543458 0.000055768194999 0.027062097748013 -10.099683598359364 0.000064089770632 -0.07095830045393 -10.02138477217138 0.000012019179248 -0.087803087685642 -9.964932697984326 0.000249151413353 0.039392358977105 -10.132816272325508 0.000283339546609 0.207952284650595 -9.97208548130553 0.003672712244709 -0.011624999359085 -9.957625831654259 0.003589562579513 0.031900687330635 -10.045129916408555 -0.000007517301605 -0.056242469989376 -9.998913530882367 -0.000038194752538 -0.046290474175855 -10.131858737582785 -0.000027419675207 -0.01695011983899 -10.12053430857698 -0.000020142063358 -0.179601740563669 -10.061773150287134 -0.000092362237818 -0.106387931716527 -10.011829083058515 -0.000028896058563 0.104206039159763 -9.932926414758283 0.000034091784879 0.010993820035335 -10.129607960075088 -0.000021067192748 -0.167626864856389 -9.858005840324561 -0.000076534912639 0.096456248751966 -9.862048517980996 0.000043704400425 0.09824833096382 -10.230409508936722 0.000010180816389 0.124627359391476 -9.96998090400572 0.000065967475479 0.124516998772508 -10.054892756256374 0.000046211321661 -0.023626719549205 -10.079590869370335 -0.000044421245219 0.12201158579366 -10.044350819075639 0.000039392523143 0.002564542283265 -9.995488038133201 -0.000026433956804 0.028194641856596 -9.972686908193921 0.000049358810031 0.139467303536898 -9.911659512633616 0.000054750272762 0.030176627873901 -9.768567531875123 0.000004603010778 0.008296340463533 -9.730041484498154 0.000025124424433 0.144275713811828 -9.943075047526092 0.000065375088875 -0.065207620414353 -9.939717036120051 -0.000055868239301 0.070361254448886 -9.952312010846367 0.000034983088343 -0.102625130771926 -9.947255473686136 -0.000076346970206 -0.031600575709815 -10.065711422302797 -0.000017221389731 -0.015550620358821 -10.176959210752033 -0.000112581376013 -0.090689418964649 -10.060119747897774 -0.000169405303086 0.015128128285829 -9.967993599573296 -0.000244920900224 -0.153381610836452 -9.985815192134716 -0.000290671176455 -0.075996570089306 -10.042559162056683 0.000020737170305 0.083771626294239 -9.803027174805397 0.00004142124446 0.047504112886996 -10.033703199534266 0.000015012384896 0.146739419302148 -9.89024896671498 0.000039683657383 0.043870218678216 -9.958929309907887 0.000042049505668 0.134424391939766 -9.826435020466228 0.000052576985011 0.072410169400282 -9.925350741947385 0.000042841645179 -0.020560776644644 -10.040112389335503 -0.000016218108103 -0.109362963194907 -10.0473507957047 -0.000051601761415 -0.097576514341935 -10.205792463118257 -0.00003789635755 0.027799974386559 -10.075175979913819 0.000000334668001 -0.038403853857002 -9.919978864046401 -0.000051260227437 0.023344575567299 -10.086173094776267 0.000000763125274 0.075287275435209 -9.939346131125722 -0.00000353593383 -0.126650395380915 -10.165834752308076 -0.000053082639488 -0.069885695412401 -10.149033393540453 -0.000012293363772 0.015619848309991 -10.067709985098217 -0.000012872386645 0.089385532765641 -10.01638719799576 0.000064961503483 0.076217045595962 -9.966047347459245 0.000011407699061 -0.247857447890602 -10.176974034903029 -0.000062782231476 -0.073304274020361 -10.096597375789123 -0.000018667974439 -0.152419973879864 -9.955241106494535 0.000002628521123 -0.03827119387031 -10.072287868437753 -0.000013417022292 0.165953506530271 -10.013633864182415 0.000099530325554 -0.006345982541048 -10.137489778073695 0.000051077401963 -0.058127127425661 -10.091124541078518 0.000084537422678 -0.06075309767943 -9.907968441062605 0.000116040366117 0.1073683093539 -9.878155781371602 0.000265884355146 0.043752873264744 -9.787711408253969 0.000289259880927 -0.013335115967082 -9.873412854631576 -0.000020012359976 0.05958026406238 -9.9676651804679 0.000044158718994 -0.039347197525033 -10.126181855297684 -0.000010535264901 0.025895122453767 -10.025888466050775 0.000018799375902 0.117833280369999 -10.118082098495474 0.000058686193983 -0.211031266021746 -9.955743167222531 -0.000063965159599 -0.06455395773202 -9.790578494118327 -0.000027927117893 0.177900682840746 -10.032595216621266 0.000051760495921 0.001523872762166 -10.017314850370278 0.000015706851752 -0.061220219047208 -10.080720154122885 -0.000020520862715 0.183306109310345 -10.05290459041694 0.000054918868431 -0.121693560022866 -9.931497824662928 -0.000054887847579 -0.118303502616296 -10.06330922318166 -0.000055290558831 0.052749416747863 -10.268553581548614 0.000019087315153 -0.014617880040341 -10.042017786591762 -0.000045293828441 0.017938144226413 -10.181089844584553 0.000006532901976 -0.109594705297585 -10.047513346729986 -0.000044018734108 -0.019566118067871 -9.888758013653666 -0.000005815589777 0.066988005599847 -9.896748147710968 -0.000013679033332 -0.032011645882738 -10.099724765423625 -0.000006880560324 -0.016915734230832 -10.089713645700884 -0.000048317079064 0.008810932649442 -9.960188958120156 -0.000011120575563 -0.045595723199307 -9.959366433984007 -0.000033670288514 -0.161167507837695 -10.089757066754444 -0.000297029059055 -0.24047839460484 -9.825422618656198 -0.000363350803417 -0.054820739432838 -10.016179166123594 -0.003619515417093 -0.065085068287751 -10.046155051901437 -0.003635933990529 0.112737471495123 -9.954102146188145 -0.016220372234036 -0.094728530298718 -9.996590927595763 -0.016241334084055 -0.232684768019635 -10.10163310380943 -0.000089244978815 0.034586474281108 -9.887144528395375 -0.000013062526992 0.029294265898521 -10.138062668516788 -0.000014328608551 0.104275285445711 -9.940427579277344 0.000006308387401 -0.050531156402911 -10.23351328166282 -0.000035881857799 -0.019529279110218 -9.941200376484577 -0.00002706518898 0.000320395845693 -10.02076750962167 -0.000032328184512 -0.087605510005342 -10.059394588892987 -0.000035714106845 0.074110828579262 -10.137415279500528 0.000027105841249 0.13120664974257 -10.087099503479859 0.000052992084796 0.067465198267745 -10.03916628519598 0.000004719343241 0.057788038618117 -9.810437750068692 0.000021333661008 0.044408343464342 -9.987965419492388 -0.000000815428992 0.195562348367058 -10.093700898856898 0.000080605888244 -0.020495157371735 -9.936828874993337 -0.000019232520251 -0.046627540580366 -10.027333339603761 0.000015735174554 0.091612591776308 -10.062460239322146 0.000022669920797 -0.080869156243951 -9.941266183565135 -0.000009870965578 0.03327562102337 -9.935049072696575 -0.000000347074706 -0.108806535306973 -9.953174696799284 0.00002857104586 0.038308665346652 -9.919591453707312 0.000013016780636 -0.172787144179197 -9.963610938711465 -0.000011668587854 -0.031879667907289 -9.968884597761805 0.000002285462617 -0.025578159396956 -10.037263227340972 0.00022304534459 -0.014374913998394 -9.887991764897256 0.000291756180166 0.225979326117023 -10.193987968630516 0.00370136383955 -0.008373662241364 -9.94483298651188 0.003632677325384 -0.029964586823134 -10.055590739357473 0.016224171420619 -0.113384362998642 -10.060456708883043 0.016217522907674 0.070466365937801 -9.979018295333619 0.000027299384432 -0.154266143364602 -9.86617884419481 -0.00006058135429 0.033707870847276 -10.232071133739749 0.000019109717474 0.001845789632684 -9.806146619923283 0.000008431021322 0.093164656135221 -9.850972221898713 0.000022470608866 0.004919181924685 -9.903587032915885 0.000010389628311 -0.113571367909589 -9.92326469590458 -0.000072200929996 0.175640829839446 -10.027771324955479 0.000028081328358 0.050413657702875 -10.056228883583609 -0.000002094963085 -0.123913607639304 -10.116839698543092 -0.000047135391429 0.048152124494994 -10.110580961972106 -0.000021077664193 -0.106486383226544 -10.024698459377895 -0.000029769128993 -0.128579425076502 -10.05119441711123 -0.000039238282539 0.033311716605525 -10.044815421196915 0.000029169623736 0.166683604515742 -9.979532690471631 0.00006419771647 0.015389117277321 -10.162815146036028 0.000021067045525 -0.151294595995727 -9.97723381678875 -0.000042555730785 -0.146612928546979 -10.046245805834687 -0.000048162547651 0.170275105709781 -10.016757736751343 0.00001946822822 -0.089231990501059 -10.008509267829696 -0.000028099414613 0.080159453002221 -10.133304140180652 -0.000014867942233 -0.090011431074554 -10.069397596145237 -0.000119410400147 -0.221111559548706 -10.177481105910784 -0.00017802371416 -0.168396834091774 -9.930398996970245 -0.000381253783811 0.106262678018544 -9.993659804212012 -0.000298076333906 0.012775181533505 -10.001494305887977 -0.003742801549972 0.122319307117095 -10.039158203830693 -0.003679661445213 0.017715174711819 -10.200017725600995 0.000020938449305 0.076179635519214 -9.868537114721734 0.000022122569011 0.111361673761504 -9.990711654404231 0.000013540845469 0.018473895427729 -10.086536031980545 0.000029669889878 0.033489236440054 -10.012887858871089 0.000011560989128 0.009166888257682 -10.054654111972042 0.00000389495776 0.148413574935731 -9.991175550572525 0.000044321089536 0.076401768917423 -10.013651981308483 0.000027392174391 0.03592354172538 -10.045269687914828 -0.000000804211777 0.076442670062388 -10.098191242555892 -0.000009645335948 0.133064114090898 -10.012090957026386 0.000054577232223 0.011448375244973 -9.855674811733953 0.00001949257082 0.04821946478524 -10.174875199541566 0.000017322365453 -0.061117958042321 -10.072730515714396 -0.00003451742985 0.146209971773536 -9.926462880338303 0.000080153911829 -0.106138830194059 -9.934846670860694 -0.000031937089945 0.094324073696387 -9.90373818119345 0.000025753961538 -0.136043126648611 -9.898952642928306 -0.000036719119769 0.036586494375989 -9.