<?xml version="1.0" encoding="UTF-8" standalone="no" ?>
<VTKFile byte_order="LittleEndian" type="UnstructuredGrid" version="0.1">

  <UnstructuredGrid>
    <Piece NumberOfCells="0" NumberOfPoints="801">
      <PointData>
        <DataArray Name="mass" NumberOfComponents="1" format="ascii" type="Float32">1 1 1 1 1 1 1 1 1 1 1 1 1 1 1 1 1 1 1 1 1 1 1 1 1 1 1 1 1 1 1 1 1 1 1 1 1 1 1 1 1 1 1 1 1 1 1 1 1 1 1 1 1 1 1 1 1 1 1 1 1 1 1 1 1 1 1 1 1 1 1 1 1 1 1 1 1 1 1 1 1 1 1 1 1 1 1 1 1 1 1 1 1 1 1 1 1 1 1 1 1 1 1 1 1 1 1 1 1 1 1 1 1 1 1 1 1 1 1 1 1 1 1 1 1 1 1 1 1 1 1 1 1 1 1 1 1 1 1 1 1 1 1 1 1 1 1 1 1 1 1 1 1 1 1 1 1 1 1 1 1 1 1 1 1 1 1 1 1 1 1 1 1 1 1 1 1 1 1 1 1 1 1 1 1 1 1 1 1 1 1 1 1 1 1 1 1 1 1 1 1 1 1 1 1 1 1 1 1 1 1 1 1 1 1 1 1 1 1 1 1 1 1 1 1 1 1 1 1 1 1 1 1 1 1 1 1 1 1 1 1 1 1 1 1 1 1 1 1 1 1 1 1 1 1 1 1 1 1 1 1 1 1 1 1 1 1 1 1 1 1 1 1 1 1 1 1 1 1 1 1 1 1 1 1 1 1 1 1 1 1 1 1 1 1 1 1 1 1 1 1 1 1 1 1 1 1 1 1 1 1 1 1 1 1 1 1 1 1 1 1 1 1 1 1 1 1 1 1 1 1 1 1 1 1 1 1 1 1 1 1 1 1 1 1 1 1 1 1 1 1 1 1 1 1 1 1 1 1 1 1 1 1 1 1 1 1 1 1 1 1 1 1 1 1 1 1 1 1 1 1 1 1 1 1 1 1 1 1 1 1 1 1 1 1 1 1 1 1 1 1 1 1 1 1 1 1 1 1 1 1 1 1 1 1 1 1 1 1 1 1 1 1 1 1 1 1 1 1 1 1 1 1 1 1 1 1 1 1 1 1 1 1 1 1 1 1 1 1 1 1 1 1 1 1 1 1 1 1 1 1 1 1 1 1 1 1 1 1 1 1 1 1 1 1 1 1 1 1 1 1 1 1 1 1 1 1 1 1 1 1 1 1 1 1 1 1 1 1 1 1 1 1 1 1 1 1 1 1 1 1 1 1 1 1 1 1 1 1 1 1 1 1 1 1 1 1 1 1 1 1 1 1 1 1 1 1 1 1 1 1 1 1 1 1 1 1 1 1 1 1 1 1 1 1 1 1 1 1 1 1 1 1 1 1 1 1 1 1 1 1 1 1 1 1 1 1 1 1 1 1 1 1 1 1 1 1 1 1 1 1 1 1 1 1 1 1 1 1 1 1 1 1 1 1 1 1 1 1 1 1 1 1 1 1 1 1 1 1 1 1 1 1 1 1 1 1 1 1 1 1 1 1 1 1 1 1 1 1 1 1 1 1 1 1 1 1 1 1 1 1 1 1 1 1 1 1 1 1 1 1 1 1 1 1 1 1 1 1 1 1 1 1 1 1 1 1 1 1 1 1 1 1 1 1 1 1 1 1 1 1 1 1 1 1 1 1 1 1 1 1 1 1 1 1 1 1 1 1 1 1 1 1 1 1 1 1 1 1 1 1 1 1 1 1 1 1 1 1 1 1 1 1 1 1 1 1 1 1 1 1 1 1 1 1 1 1 1 1 1 1 1 1 1 1 1 1 1 1 1 1 1 1 1 1 1 1 1 1 1 1 1 1 1 1 1 1 1 1 1 1 1 1 1 1 1 1 1 1 1 1 1 1 1 1 1 1 1 1 1 1</DataArray>
        <DataArray Name="velocity" NumberOfComponents="3" format="ascii" type="Float32">0.111229017743473 -10.034451881474116 0.000002827347492 0.060805824661385 -9.935939529316416 0.000000592411769 -0.071208552391129 -9.88409771180716 -0.000000793974304 -0.17189576842523 -9.95825162346172 -0.000002025312235 -0.040008309762501 -9.771974235251877 -0.000004078165919 -0.227176452820755 -9.977476700110774 -0.000006480469303 0.086633929651364 -9.861291503714529 0.000001326524615 -0.10325901915673 -9.969203214417929 -0.00000226350229 -0.035822622184917 -9.969899830094965 -0.000003412643367 -0.111382980264835 -10.032155556861474 -0.000002800401755 0.004741611870359 -9.875641071101956 -0.000004509021111 0.084485736166328 -10.152882550447112 0.000001631669256 0.222416611244018 -9.960683422964358 0.00000391525621 -0.000642300225459 -9.952749509029744 -0.000000691223034 -0.074985211384695 -9.901954078919797 -0.00000250370609 0.015422830878961 -9.844465165577652 -0.000000185789687 -0.022798041430938 -9.910587267801489 -0.000000502202375 -0.132843131941934 -10.090325905645322 -0.000003718732891 0.005417949725672 -10.086221141357473 -0.000001672834863 -0.106203700608318 -9.943768114371206 -0.0000001239329 0.078689851080494 -10.030468351689178 0.000001290995851 -0.006953841600831 -10.071736342775806 0.000001750695142 -0.170499461020734 -9.970902752582656 -0.000004887013582 -0.064102439618541 -9.866464858569206 -0.000000712088019 0.015560711675151 -9.791902988795123 0.000002482921846 0.003858629445269 -10.056260417948193 -0.000000071332797 -0.01055318720887 -9.926788156450279 -0.000002583526988 0.031924293768711 -9.984676120668192 0.000001045461037 -0.089115375040905 -9.900550407886461 -0.000004307000203 0.13171554205679 -10.140206514875011 0.000003445098518 0.050563337102064 -10.086917446341921 0.000001584652824 -0.015937123740124 -9.898950574015839 -0.000002885468186 0.097401394813959 -10.050090696702959 0.000002756971773 -0.02423821890414 -9.964809899497732 -0.000002592021373 -0.107402208195362 -9.866095935466753 -0.000002463704079 0.052893892811317 -9.989699400665614 0.000000287579408 0.039699799313618 -9.909458461681155 0.000003130524733 -0.011109433974029 -9.922104607794964 -0.000001466753652 -0.039480127011443 -9.87773930808015 0.000000298428893 0.02645106112082 -9.941035731175152 0.000001499732854 -0.009230237085485 -10.14971069977465 -0.000000359367658 0.194079858948302 -10.093550563242886 0.000005517172501 0.07994438093806 -10.14635355592622 -0.000000101855574 0.101150503722836 -10.068102724560243 -0.000000261557841 -0.029007632113978 -10.15001536087682 -0.000001513390695 -0.083408773010424 -10.059661759358489 -0.000001137561967 0.141750518213111 -10.209638565198359 0.000002225162642 -0.002822217036803 -9.838682439562557 0.00000237805028 0.153810489013516 -10.09744662592693 0.000004203548105 0.133884695321693 -10.070348782104988 0.000004730909052 -0.076360249330443 -10.099276430358037 -0.000000557312438 0.049394902558467 -10.14934087470769 0.000000372083106 -0.070393390572571 -9.953041845754415 -0.000003166727702 -0.035057560914983 -9.972588190137555 0.000000484766086 -0.069383264023138 -9.94943131976485 -0.000001660060258 -0.066207233623026 -9.996762474320256 -0.000000979515965 -0.067228099694985 -10.054007005385571 -0.000002726570314 0.083393864644095 -9.934753867940843 0.000003093997795 0.007580028289173 -9.978402317814743 -0.000000909912177 0.068768095053456 -9.870969296859618 0.000003131090194 0.003933306254144 -10.08501635085203 -0.000002481217057 -0.015898886519848 -9.86535946270838 -0.000003542286916 0.04382643079588 -9.847373670490958 -0.0000004242337 0.035920787828602 -10.122127507320162 0.000000893749558 -0.11195437567255 -10.035966300813906 -0.000002182460134 -0.205443677602043 -9.92358395897045 -0.000002575115109 0.223062782212793 -10.133052144219237 0.000006580189343 0.029760416079214 -10.0634823790543 0.000002766322479 0.019276357299772 -9.839128638262173 -0.000000970694148 0.020384531080572 -9.900084259512031 0.000001881216606 0.135385719972982 -9.92956828617646 0.000005177059129 0.006971443668284 -9.993779470268269 0.000001310508217 0.209470886904455 -10.00345603082144 0.000006942387774 -0.034890442036934 -9.9657976354897 -0.000000566767366 0.074667935639591 -10.12562009681043 0.00000050463328 0.061606381870774 -10.128816523692153 0.000001677449525 0.11538329821078 -10.105290452642151 0.000003340824018 -0.072201810721638 -10.113196693457947 -0.000002707071781 -0.064443954346567 -9.97989214818505 -0.000001862191618 -0.119288540771206 -9.934829890879641 -0.000003449863969 0.001095596207925 -9.951679964249484 -0.000000754577034 -0.175048049203416 -9.963234788204026 -0.000005348262121 0.033817538228075 -10.059592255081409 -0.00000118688647 -0.075463199988475 -9.755234514048457 -0.000000527342223 0.066530876630204 -10.007323042371901 0.000002475401853 -0.043701640107814 -9.907168583195352 -0.000000842502222 -0.168944730247561 -9.8927568134803 -0.000003975872758 0.062338787424406 -10.049876239519884 0.000001525929151 0.203244208928225 -10.019632463764683 0.000006755652981 -0.017853801201967 -10.193666408747136 0.000001171529607 0.057711052140336 -10.085296920725911 0.000003464397069 0.011611843202483 -10.046731652673239 0.00000086616479 -0.074040843892239 -9.828464539826266 -0.000002167398535 0.141398046157082 -9.888165077491736 0.000004039130537 -0.052005999365303 -10.107199931139556 -0.000004419788871 0.136180674948896 -9.841381898023135 0.000004428489983 0.11935392577281 -10.08874887575176 0.000001422909103 0.064952795222349 -10.08038423051158 -0.000000080692154 0.053103885035199 -9.976761725409357 0.000000876952056 0.079508713249706 -10.12595756102543 0.000002245030048 0.006829117167339 -10.086782124746927 -0.000002218214736 -0.035886665379315 -9.94354205199582 -0.000003067613208 0.027921989048026 -10.060875015694579 0.000000509620197 -0.082575974323797 -10.029402437143188 -0.000004527226647 0.151490496902156 -9.816038395190111 0.000002608797963 0.097506256755503 -10.123615411720692 0.000001941723866 0.095667662224444 -10.07332241894594 0.000002801331071 -0.056580994877524 -10.103023478638004 -0.000001344119399 0.098358906310406 -10.050595406191054 0.000002403469788 -0.13174910856795 -10.026835521826444 -0.000003882555204 0.102554885617831 -9.92294650314391 0.00000238704635 -0.07397516292135 -9.963765810965837 -0.000002092339539 -0.056138281375698 -9.867512133937216 0.000000241013236 0.039897145070708 -10.032627801864292 -0.000000509037676 0.142196298961273 -9.976627870282446 0.000006765891109 -0.028180128598819 -9.943764634911634 0.000000457483249 -0.006678481556019 -9.725974288175408 0.000001578192275 -0.075804515143306 -10.050710374864744 -0.000001945204197 0.112341933436709 -10.002409250568798 0.000002636464498 -0.012331366674615 -9.881571509561931 -0.000000642843699 -0.003597424535204 -10.187642470994673 -0.000001627517214 -0.095577846206014 -9.943944830746057 -0.000003927735542 0.04247080395365 -10.070332141953488 -0.000001542985718 0.250413917598542 -10.01545723468718 0.000003182587235 0.076180480454583 -9.94956025407591 0.000000427377497 -0.060891867837202 -10.052571476490705 -0.000002315755374 -0.000411600241856 -10.105302274177205 -0.000001482095009 -0.094089931197794 -10.036283378064704 -0.000001432754971 -0.019928162603368 -9.950927497024232 -0.000001477483833 0.076498813677044 -9.977229384673024 0.00000161689693 0.040139520475322 -9.962045837383375 0.000001081237659 -0.005006625267534 -10.210387383302548 0.000000474733928 -0.108750191989878 -9.836633604067554 -0.000007067673117 0.065682336381991 -10.14545224097329 0.000003021825452 -0.078789497069609 -9.970411969482026 -0.000005889654474 -0.089693433956108 -10.139161109671074 -0.000000972964518 -0.026713800882111 -10.06477044752542 -0.000002538648218 -0.011741348741294 -9.929856887564254 -0.000001169969799 0.056053287568634 -10.15727174704187 0.000000296022497 0.072635920529581 -9.880271542645826 0.000004341747035 -0.004502249597196 -10.12273619278653 -0.000000594360145 0.088193249503134 -9.97111270980632 0.000005015973581 0.008857002209317 -10.146041380437621 -0.000001119451294 0.1592257402903 -10.204031402825942 0.000006769930763 0.115383809520431 -10.036927653134681 0.000002325631591 -0.114608296247507 -10.077989505777582 -0.000001649183617 0.135157740736177 -9.918373905712997 0.00000247003754 0.069981982001009 -9.9322929902988 0.000002810358538 -0.034618227120051 -10.064567968326756 -0.000000405160198 0.06791811518787 -9.959042968239039 0.000002745871717 -0.061952340206778 -10.006920391068119 -0.000003237894595 -0.146876318430805 -10.014184494515868 -0.00000055994327 -0.081670225812138 -10.022905282796607 -0.000000639633456 -0.129384258930157 -9.900412210707218 -0.000001092925961 0.025434483565885 -10.027376469428773 0.000003096539356 -0.022391988764639 -9.851379564472523 -0.000001955115568 0.183182425881365 -10.054666226270813 0.00000424311417 -0.096394918908309 -9.9773367893218 -0.000004665033502 0.249575945523946 -9.905163237039449 0.000005741171595 0.118545056708707 -10.17214705171788 0.00000105942816 -0.033506680357515 -9.933448023931042 -0.000003013469356 -0.009086917813189 -10.128053883522762 -0.000000903519143 0.23766370304491 -9.944229597698911 0.000005880662386 0.169233261928254 -9.863290541145837 0.000004000154066 -0.05105202330992 -9.936826504925449 -0.000003551367741 -0.010262251654817 -10.154073894783496 0.000001916410028 0.084835644578757 -10.054214522820127 0.000001450603825 -0.032552848363663 -9.913887813902322 -0.000001668656943 -0.052677234053654 -9.893561380953539 -0.000005922138924 0.009123649442756 -10.026501535435365 0.00000044426008 -0.072398272987722 -9.91699385141273 -0.000005754656598 0.040411760013524 -9.892238516846129 0.000002757192054 -0.070756026754618 -10.102792429181681 -0.000003449490596 -0.124234366035463 -9.953713307370153 -0.000004255785924 -0.072233386933189 -9.967752563474626 -0.000001657160603 0.09143579578954 -9.92895803394959 0.000001640520861 -0.128879649464338 -10.042486841229037 -0.000003364421741 -0.182324218196448 -10.065234942324581 -0.000003881309188 -0.134898576178102 -10.057301244684847 -0.000007287602636 0.011453968691418 -10.120380801383014 0.000000007087587 0.003437370052109 -10.03028396551732 -0.000011366436406 -0.148901315296729 -10.146276626262834 -0.000013291158818 -0.088582734675045 -9.893001866951639 -0.000027645500909 -0.128210046238458 -9.918999728811086 -0.000031869137982 0.010088897786272 -9.921662927620135 -0.000042082045991 0.058629430532567 -9.89935738066297 -0.000043009833054 0.112785332608378 -10.10704030704529 0.000002718074088 0.011602494337515 -9.879147702338537 0.000002274002176 0.127221552976156 -9.846829702062887 0.00000369116944 0.046367018489237 -10.24843589832461 0.000000626696777 -0.08653332521918 -9.862640991134052 -0.000003684017976 0.1027693435237 -9.939575844046743 0.00000294795364 -0.042264889955829 -9.981963938200437 -0.000001473193214 -0.11860568921581 -9.954878749847783 -0.000003420636391 0.175728611837017 -9.940494751086678 0.000007040355671 -0.088111336116005 -10.107797232026048 -0.000003303294677 0.039761514136296 -9.908511509243461 0.000001735630445 -0.104305383111481 -10.051943282898504 -0.000001880534072 0.035025895574543 -9.920695004360976 0.000000419354525 0.10820936451265 -10.131760920021625 0.0000024102432 0.012703246788626 -10.010303649785598 -0.000000341346632 -0.122835909952356 -9.998753532364068 -0.000005270904284 0.095539839873381 -9.949016100301899 0.000002396149934 -0.079969598853476 -9.843866624106091 -0.000002405702471 0.10789681145624 -9.986106294362065 0.00000371478273 0.010528957554667 -9.980813396461379 -0.00000061144432 0.008690495937933 -9.926810725914397 0.000000080192648 -0.031716611408934 -9.702089641739066 0.000001411066888 0.124338527865915 -9.962583701472246 0.000002961052273 0.046279227837008 -10.018502377510558 0.000005498800659 0.099578281658624 -9.976242217573377 0.000006092368584 0.068465778886095 -9.871319365746551 0.000011248953588 0.063215764601413 -9.932294792710897 0.000011040084498 -0.148372949797636 -9.935678671319868 0.000024700626586 -0.011143904688632 -10.125279855535242 0.000026316203116 0.031512980049448 -9.964034105867356 0.000044815464959 0.082744858357236 -9.960677385270809 0.000044865671517 -0.138132825490612 -9.823355440499608 -0.000005420528352 0.113564258291634 -9.829423215394399 -0.00000063163381 0.012822936726599 -10.116801807818506 0.000001803717663 0.007757430629855 -10.045775502537676 -0.000003267011278 0.189774168063034 -9.982905154243772 0.000003054978415 0.127404609255519 -9.994274759970979 0.000002414783179 -0.100949735171428 -10.002662973805821 -0.00000527304457 0.001459973492994 -10.063766429559001 -0.000002875805531 0.118890581614 -10.043603941454617 0.000001266186198 0.209739374666286 -10.072938047241735 0.000006208103077 -0.108297995691649 -10.026396187364854 -0.000003389958402 -0.147488345563329 -10.054391421961036 -0.000004952428937 0.030474362410137 -9.870724512844918 0.000000986896624 0.214409317629466 -10.137996019270826 0.000003794134956 -0.000851066133339 -9.981385319946666 -0.000000603909212 0.17038036583966 -9.882355029069355 0.000003997865413 -0.068574135713703 -10.069225829419466 -0.000001635257956 0.020436954391001 -9.933516187397183 0.000001101714557 0.16890214157762 -10.026365799805188 0.000004998533907 -0.020125713832706 -9.885193880220504 0.00000110200815 0.033436794022438 -9.977652050244442 0.000000752475008 -0.202610240026126 -9.955275264601221 -0.000007064805193 -0.150987226131501 -10.012048779792579 -0.000002807802943 0.063980762235692 -10.004812001921685 -0.000006153235562 -0.132918755623267 -10.017596802251665 -0.000010431220526 0.073410834358199 -9.930437447966531 -0.000067499978515 0.041257494140012 -10.024454377702515 -0.000069315471826 -0.169077874252361 -10.099481423801292 -0.000981614008293 0.199596978422005 -9.818588270798836 -0.000973745542337 0.042589540041942 -10.121822840859295 -0.004425229813434 -0.03938396077166 -10.21884121037569 -0.00442715458989 0.023878982090448 -9.935430729194636 0.000000251279795 -0.130505339117871 -9.95191363301978 -0.000002494732042 -0.050573521474425 -10.120256630885699 -0.000002869531178 0.173946625930278 -9.890012275977279 0.000004321759982 0.167541916462173 -9.908726596995077 0.000006601296821 -0.067427332039395 -9.990621949189052 -0.000003530799931 0.038227257647589 -10.154524920760648 0.000002486356814 0.051948434780381 -9.861403386991437 0.000001787165255 -0.126836007923092 -10.020206972340105 -0.000004770474382 -0.006025834467761 -9.855140110657203 0.000002439410252 0.009645128685843 -9.967724618643064 -0.000000279718136 -0.080023761375516 -10.048000620524979 -0.000002152455533 0.086638724370778 -10.030395457153631 0.000001361997015 0.042306049120675 -9.973793687446857 0.000000171693791 -0.018767648219051 -10.175968989345943 -0.000001455198203 0.096477812241857 -9.967529491552966 0.000003116535739 0.019631121656177 -9.961980938443276 -0.000000195974496 -0.084742089463822 -10.058387333814265 -0.000000572468672 -0.050401577571476 -10.04494472965367 -0.000003422898902 0.043798641820748 -10.112311259615018 0.000001537641257 -0.045312718028651 -10.033078363680943 -0.000000328060761 -0.054084396501238 -9.789598909721921 0.000001933267669 0.017655900716391 -10.066390963550731 -0.000000009789224 -0.248710155266343 -10.008311423373041 0.000001623214957 -0.053657900960107 -10.174934961631473 0.000006002449891 -0.018114403620268 -9.970948069240846 0.000070614778515 0.028383106816569 -10.132075405611264 0.000070346170971 -0.048034266017294 -10.009105689199005 0.000978257475049 0.073084401431542 -9.939918082583569 0.000981542926747 -0.04943887283361 -10.000195389938053 0.004425053655353 -0.104810526470179 -9.937978842559621 0.004424053574916 0.121059999992572 -10.104388441114898 0.00000469191855 0.08022836348913 -9.969798377467313 0.000001563253212 -0.014442047679088 -10.040958575845741 0.000000346705393 0.061011334937995 -9.930654560533752 0.000001376041851 0.116004138153799 -9.893907334275383 0.000003366288917 0.061736842850813 -10.028547388121474 0.000001396672835 0.103080591583722 -10.082428537436364 0.000003305792876 0.051049652258451 -10.051302965631917 0.00000032202829 0.012169372336426 -10.059653083711453 0.000000338518976 -0.039358564406497 -10.05599904620316 -0.000004604964206 0.012717513554427 -10.063086908260567 -0.000000398398943 -0.021340502459222 -10.167502930230182 -0.00000098244391 0.031272440756909 -10.118886362527505 -0.000000756077022 0.254024452892461 -10.071047453227461 0.000005104432548 0.081323935562621 -9.747980827242412 0.000001230486378 0.074104894502948 -10.088738773566257 -0.000000427113058 -0.136179438230057 -9.922836715586843 -0.000003544119069 0.002759754946656 -10.034972442130655 -0.000002628351668 0.056094790200282 -10.019830844460925 -0.000001159274394 -0.144780445998775 -9.988854223342694 -0.000004536520923 -0.08352283975643 -10.162603981979286 -0.000005498173045 0.136732377864235 -9.889811065875019 0.000004650917145 -0.041076922263799 -10.167345821566638 -0.000002741362273 0.123777171051039 -10.101752337799748 -0.000004751139145 -0.075483460220776 -9.931482984510588 -0.000009782405671 -0.112581720592388 -9.915512401365623 -0.000076487938662 0.107083775102601 -9.968477677251073 -0.000069381167241 -0.123972811311089 -9.886255138942852 -0.000985007433842 0.008235352053022 -9.878518023731182 -0.000981889767097 -0.085817529392016 -10.083686404918318 -0.00000167025537 -0.07940637967021 -9.997309785794405 -0.000001978439424 0.088057543679782 -9.974916704391971 0.000002152069773 0.012714373415474 -9.868409166123453 -0.000003005798566 -0.138754725510373 -10.12441625198403 -0.000006483661738 -0.019867406455927 -10.000467910872739 -0.000002161030858 -0.102866819206379 -9.896698666562477 -0.000004000728969 0.133466748621488 -9.996916284360321 0.00000265485185 -0.006287916587545 -10.081469537593673 0.000002604202475 -0.138345095962859 -10.007289693718628 -0.000002119610791 -0.026945182891686 -10.01656120118162 -0.000000844754653 0.152128151290539 -9.919935313650532 0.000006168356421 0.012379433299121 -10.011195844108727 -0.000000753021577 -0.015126461757632 -9.838283654212855 -0.000001884548601 0.052655627141372 -9.841723298125881 0.000002901865634 0.015691264107668 -9.972791099285713 0.000000144727783 -0.015297790663183 -9.989080585333774 -0.00000056175953 -0.079805873273689 -10.092362245523191 -0.000001464892681 0.094839012611467 -10.085531639762188 0.000002786784708 0.021764037807707 -10.033732415170268 0.000003549953406 -0.10604991763925 -9.871340801646697 -0.000000843864061 -0.150252519225493 -10.226580880497403 0.000000781012722 0.114804836476108 -10.131054025798921 0.000005791421214 0.027018040079879 -10.099516554582562 0.00001162313518 -0.070967627049504 -10.020676785498603 0.000007753472291 -0.087987110687385 -9.962110803052958 0.000071567459029 0.039188011834248 -10.136229463175111 0.000074110762087 0.205286866209815 -9.966897014492018 0.000987651320973 -0.014237386915194 -9.962151819905536 0.000981468237681 0.03190714347015 -10.044972087932392 -0.000000577992077 -0.056219654779284 -9.998235966762318 -0.000002859712786 -0.046271544481224 -10.132480684167898 -0.000002060361738 -0.016936724525763 -10.121473511109938 -0.000001520349952 -0.179544183073445 -10.062003878253538 -0.000006890392308 -0.106370467178348 -10.01090315112349 -0.000002175033634 0.104181935284635 -9.932728303964234 0.000002508660476 0.011007368968479 -10.131151162357972 -0.000001601638986 -0.167578472017921 -9.856227713789115 -0.000005727404004 0.096430242658343 -9.860547364073449 0.000003202380656 0.098244258869081 -10.23259871565279 0.00000071093547 0.124583475681796 -9.9699861877315 0.000004834862324 0.124489750251502 -10.054198230487481 0.000003364974851 -0.023599595149967 -10.080355123355009 -0.000003412368163 0.12198845834919 -10.044611619782426 0.000002814213919 0.002583093896506 -9.995464343797623 -0.000002167804608 0.028158851630801 -9.973234807640781 0.000003471210484 0.139433830680091 -9.912055139869221 0.000003667732894 0.030172821507023 -9.76705634619163 -0.000000062037938 0.008278216670795 -9.728445575876981 0.000000922701057 0.144234518542943 -9.943752580906381 0.000003914680362 -0.065169547712026 -9.940509381206581 -0.000006840844297 0.07034089027269 -9.951935698459412 -0.000000086930475 -0.102573009344807 -9.9460644813025 -0.000014443261804 -0.031585176515915 -10.066454841230104 -0.000010049696534 -0.01546844400082 -10.176120111136399 -0.000034689712782 -0.090567685339237 -10.062994349019965 -0.000038914123596 0.015307603376085 -9.95938047842834 -0.000068351155447 -0.153174555424945 -9.993303851918622 -0.000071752866716 -0.076014362854256 -10.043547600624979 0.000001562869991 0.083746108322161 -9.801724826007202 0.000003101953585 0.047494971285326 -10.033958393826554 0.000001136881189 0.14671602795391 -9.890873411673743 0.000002972635149 0.043843614900189 -9.95875114437179 0.000003147608096 0.134390706369009 -9.825307395028604 0.000003936842601 0.072383462516151 -9.924740280277295 0.000003210806046 -0.020549568986609 -10.040303595761415 -0.000001173389781 -0.109330066787726 -10.047722548612148 -0.000003803118962 -0.097554914051138 -10.207592331924525 -0.000002770091327 0.027800596279902 -10.07524514983252 0.000000071375136 -0.038369222346069 -9.918772491607402 -0.000003743546294 0.023344219010444 -10.085897238777015 0.000000126179196 0.075290916090122 -9.938576430394194 -0.000000150781442 -0.126618095661282 -10.166557784222389 -0.000003835085061 -0.069880222802326 -10.150412233654269 -0.000000712085063 0.015629673308175 -10.067724715143722 -0.000000756960266 0.089342601927261 -10.015183685751143 0.000005235094099 0.076211331338383 -9.965119339203223 0.000001252118922 -0.24781919442568 -10.178501628073642 -0.000003722083307 -0.073293859540775 -10.097252973576067 -0.000000439194731 -0.152424028831938 -9.954058808728178 0.00000288374218 -0.038262398665556 -10.071968947822256 0.000001687986088 0.16589025363363 -10.013301845835921 0.00001617040847 -0.006382915455624 -10.138945833452409 0.000012565602594 -0.058191277355105 -10.089680413827271 0.000032606592658 -0.060839596203483 -9.910123648389325 0.000034947717863 0.107175646076932 -9.869516900909989 0.000069911234133 0.043544281439476 -9.79500471005837 0.000071649055682 -0.013320227943067 -9.872030917130292 -0.000001520883059 0.059553618920129 -9.967821826415285 0.000003250285196 -0.039341596344999 -10.127205151465992 -0.000000815833202 0.025883338039832 -10.026400527139199 0.000001362559583 0.117794702657753 -10.119383748698407 0.00000433273523 -0.210993437899614 -9.955152354909112 -0.000004800552437 -0.064533406671596 -9.788343455693431 -0.000002120209267 0.177866763571619 -10.032707966267523 0.000003796021412 0.001512697421945 -10.018096333132929 0.000001114650658 -0.061208171760297 -10.081530598810868 -0.000001601943169 0.183271774044839 -10.052976492026895 0.000004009150955 -0.12165710909321 -9.929518656009629 -0.000004195959965 -0.118268861665576 -10.063439930153381 -0.000004225142753 0.052736319882821 -10.27026559390205 0.000001226909651 -0.014588133083701 -10.041909288147108 -0.000003562477241 0.017933647620899 -10.181897427690622 0.000000127772106 -0.10956556381217 -10.048159086559892 -0.000003631158934 -0.019563148493452 -9.886729328175589 -0.000001184514786 0.066999363562697 -9.895382957177734 -0.000001770674247 -0.032006129611353 -10.101129561912524 -0.000002451225078 -0.016882842119162 -10.091028314738388 -0.000005531541908 0.008823302999156 -9.958987018784324 -0.000008152626235 -0.045574335173957 -9.959486551952793 -0.000009829279068 -0.160953397411434 -10.08999297992966 -0.000075860725335 -0.240224676092878 -9.824603758845013 -0.000080797242506 -0.052189260516114 -10.010940738709758 -0.000984868678932 -0.062441361605191 -10.052419853958234 -0.000986092335486 0.124536780322997 -9.946058729124834 -0.004428548801129 -0.082915857639488 -10.004183092201343 -0.004430108917769 -0.23263013871774 -10.102333812963307 -0.000006606143857 0.034596556924902 -9.886083367194509 -0.000000938161489 0.029304883392963 -10.137817708843992 -0.000001033380879 0.104273654533634 -9.940642735781273 0.000000504258244 -0.050508986349487 -10.234764323034618 -0.000002631791539 -0.019513966818255 -9.94073387057381 -0.000001971000243 0.000341659734744 -10.019433056156837 -0.000002361303851 -0.087585705913446 -10.059758412665433 -0.000002600165843 0.074093919257641 -10.138282892106256 0.000002068587705 0.131172764642571 -10.08830306241099 0.000004015876129 0.067462625061581 -10.038975448416332 0.000000427736986 0.057776645535233 -9.808184605548643 0.000001701879241 0.044409727887207 -9.987962811834031 0.000000055174205 0.195510810099205 -10.095120123818345 0.000006190923473 -0.020482207249444 -9.936117463072895 -0.000001235377755 -0.046640200841407 -10.027393296560666 0.000001528998945 0.091597117028922 -10.063492714458402 0.000002043493325 -0.08086220458499 -9.940875474300194 0.000000015429098 0.033275364138497 -9.934605896660804 0.000000726241531 -0.108827454055768 -9.953152154458781 0.000004062813616 0.038299377551918 -9.919349897054905 0.000002906725275 -0.17278429887338 -9.963264909662037 0.000006459221766 -0.031883598762 -9.969521990130694 0.000007497832427 -0.025742124282224 -10.036323285649686 0.000070359291796 -0.014586784798466 -9.888028747564443 0.000075470493288 0.223297125255223 -10.189998767332003 0.000990956512529 -0.011015310737141 -9.949779563194442 0.00098584692432 -0.041765227176513 -10.047239930372026 0.00442883249621 -0.125181425576164 -10.068723992219555 0.004428338335361 0.070448642521932 -9.978462005012574 0.000001977623528 -0.154227920617372 -9.865975399394078 -0.00000455876223 0.033695460914466 -10.234621753913101 0.000001367018881 0.001839992755533 -9.805510535525981 0.000000565855127 0.093152686871293 -9.849123863663037 0.000001606440925 0.004912377477967 -9.903482576280824 0.000000703759117 -0.113524947057274 -9.923050129708727 -0.00000544526466 0.175626062389263 -10.027909647539436 0.000001995923596 0.050413359609516 -10.056530244236605 -0.000000246236631 -0.123884899683544 -10.117561374761378 -0.000003635918241 0.048165524389508 -10.111030966881124 -0.000001698107016 -0.10646749696006 -10.024259104621105 -0.000002421733524 -0.128554838739149 -10.051249012802954 -0.000003126559562 0.033295516700714 -10.044413971776205 0.000001799772416 0.166643910201348 -9.979253879127615 0.00000440987415 0.015374656604525 -10.16374243569007 0.000000846727398 -0.15126870255543 -9.977079061609652 -0.000003886249136 -0.146582175399474 -10.04591997838744 -0.000005201057898 0.170265749669924 -10.016477892802415 -0.000000170080392 -0.08921221707956 -10.008054458783164 -0.00000638674081 0.080171196979935 -10.133633584552268 -0.000005400965027 -0.089926973776272 -10.069984818469045 -0.000023328504459 -0.220990244273539 -10.178625969617036 -0.000027691985553 -0.168123568069669 -9.927273591250255 -0.000101481619565 0.106482350691982 -9.995009008142365 -0.000095289765799 0.0154970060326 -9.996550999697847 -0.001023297076081 0.125000634598222 -10.044575462434635 -0.001018599828618 0.01770313126112 -10.202182806255898 0.000001607805611 0.076166826191653 -9.866317241472482 0.000001700137338 0.111355579386581 -9.989768072310271 0.000001060749768 0.018452425405569 -10.087558950957902 0.000002269754185 0.033479350400519 -10.013071405488834 0.000000921810192 0.009163273642406 -10.054703421743081 0.000000361352364 0.148386100707637 -9.990868279501534 0.000003364977188 0.076384710228947 -10.013136170052706 0.000002128154344 0.035926700440061 -10.04563472398466 0.000000030933084 0.076451729451489 -10.099486420840966 -0.000000585668638 0.133027462563439 -10.01130025907158 0.00000419222273 0.011433190246083 -9.853827738481307 0.000001658611731 0.048206551424399 -10.176539802187685 0.000001496875189 -0.061095681188208 -10.074166088954877 -0.000002204060681 0.146157652559525 -9.92554477680261 0.000006329147163 -0.106118286813165 -9.934438102554147 -0.000001655502663 0.094307833280805 -9.903456117087103 0.000002636654994 -0.136021329997266 -9.897973116685549 -0.000001110590924 0.036583728977499 -9.953782728384775 0.000