<?xml version="1.0" encoding="UTF-8" standalone="no" ?>
<VTKFile byte_order="LittleEndian" type="UnstructuredGrid" version="0.1">

  <UnstructuredGrid>
    <Piece NumberOfCells="0" NumberOfPoints="801">
      <PointData>
        <DataArray Name="mass" NumberOfComponents="1" format="ascii" type="Float32">1 1 1 1 1 1 1 1 1 1 1 1 1 1 1 1 1 1 1 1 1 1 1 1 1 1 1 1 1 1 1 1 1 1 1 1 1 1 1 1 1 1 1 1 1 1 1 1 1 1 1 1 1 1 1 1 1 1 1 1 1 1 1 1 1 1 1 1 1 1 1 1 1 1 1 1 1 1 1 1 1 1 1 1 1 1 1 1 1 1 1 1 1 1 1 1 1 1 1 1 1 1 1 1 1 1 1 1 1 1 1 1 1 1 1 1 1 1 1 1 1 1 1 1 1 1 1 1 1 1 1 1 1 1 1 1 1 1 1 1 1 1 1 1 1 1 1 1 1 1 1 1 1 1 1 1 1 1 1 1 1 1 1 1 1 1 1 1 1 1 1 1 1 1 1 1 1 1 1 1 1 1 1 1 1 1 1 1 1 1 1 1 1 1 1 1 1 1 1 1 1 1 1 1 1 1 1 1 1 1 1 1 1 1 1 1 1 1 1 1 1 1 1 1 1 1 1 1 1 1 1 1 1 1 1 1 1 1 1 1 1 1 1 1 1 1 1 1 1 1 1 1 1 1 1 1 1 1 1 1 1 1 1 1 1 1 1 1 1 1 1 1 1 1 1 1 1 1 1 1 1 1 1 1 1 1 1 1 1 1 1 1 1 1 1 1 1 1 1 1 1 1 1 1 1 1 1 1 1 1 1 1 1 1 1 1 1 1 1 1 1 1 1 1 1 1 1 1 1 1 1 1 1 1 1 1 1 1 1 1 1 1 1 1 1 1 1 1 1 1 1 1 1 1 1 1 1 1 1 1 1 1 1 1 1 1 1 1 1 1 1 1 1 1 1 1 1 1 1 1 1 1 1 1 1 1 1 1 1 1 1 1 1 1 1 1 1 1 1 1 1 1 1 1 1 1 1 1 1 1 1 1 1 1 1 1 1 1 1 1 1 1 1 1 1 1 1 1 1 1 1 1 1 1 1 1 1 1 1 1 1 1 1 1 1 1 1 1 1 1 1 1 1 1 1 1 1 1 1 1 1 1 1 1 1 1 1 1 1 1 1 1 1 1 1 1 1 1 1 1 1 1 1 1 1 1 1 1 1 1 1 1 1 1 1 1 1 1 1 1 1 1 1 1 1 1 1 1 1 1 1 1 1 1 1 1 1 1 1 1 1 1 1 1 1 1 1 1 1 1 1 1 1 1 1 1 1 1 1 1 1 1 1 1 1 1 1 1 1 1 1 1 1 1 1 1 1 1 1 1 1 1 1 1 1 1 1 1 1 1 1 1 1 1 1 1 1 1 1 1 1 1 1 1 1 1 1 1 1 1 1 1 1 1 1 1 1 1 1 1 1 1 1 1 1 1 1 1 1 1 1 1 1 1 1 1 1 1 1 1 1 1 1 1 1 1 1 1 1 1 1 1 1 1 1 1 1 1 1 1 1 1 1 1 1 1 1 1 1 1 1 1 1 1 1 1 1 1 1 1 1 1 1 1 1 1 1 1 1 1 1 1 1 1 1 1 1 1 1 1 1 1 1 1 1 1 1 1 1 1 1 1 1 1 1 1 1 1 1 1 1 1 1 1 1 1 1 1 1 1 1 1 1 1 1 1 1 1 1 1 1 1 1 1 1 1 1 1 1 1 1 1 1 1 1 1 1 1 1 1 1 1 1 1 1 1 1 1 1 1 1 1 1 1 1 1 1 1 1 1 1 1 1 1 1 1 1 1 1 1 1 1 1 1 1 1 1 1 1 1 1 1 1 1 1 1 1 1 1 1 1 1 1 1 1 1 1 1 1 1 1</DataArray>
        <DataArray Name="velocity" NumberOfComponents="3" format="ascii" type="Float32">0.111243996105941 -10.033808209672877 0.000025452912584 0.060807371017124 -9.936259421980502 0.000005332263965 -0.071211272765542 -9.884199805612191 -0.000007143527033 -0.17190576262744 -9.958237177002886 -0.000018223001269 -0.040031856612277 -9.772495472544438 -0.00003671187919 -0.227211824212504 -9.977406295117097 -0.000058323599804 0.086640469012005 -9.861334862582048 0.000011936745717 -0.103269943055666 -9.96937858420335 -0.000020379303425 -0.035840921185461 -9.96937884157642 -0.000030720526009 -0.111397708298661 -10.032312227883359 -0.000025211400911 0.004716561264916 -9.876102640560177 -0.000040588711551 0.084493754882884 -10.152063700911514 0.000014688156395 0.222437974944932 -9.960320367226146 0.000035236340671 -0.000646672526994 -9.952986049317543 -0.000006219678365 -0.074998389889816 -9.902128501523164 -0.000022550290889 0.015422354989057 -9.845385348869224 -0.000001676455012 -0.022800524151576 -9.911000888593744 -0.000004518316397 -0.132863572103549 -10.089314515921275 -0.000033441793348 0.005406987860382 -10.085630642658639 -0.000015047646943 -0.106203604419307 -9.944478712630348 -0.000001112314481 0.078697269437267 -10.030466473902319 0.000011615144303 -0.006944778229739 -10.070885322540644 0.000015764045189 -0.17052638029181 -9.970579660524566 -0.000043998145951 -0.064107079651736 -9.867512049454534 -0.000006411410025 0.015575807004281 -9.792666836329731 0.000022341181518 0.003857305437488 -10.055779937040814 -0.000000638353043 -0.010567124283096 -9.926184396357428 -0.000023268721706 0.031929948674058 -9.987217363305232 0.000009412683182 -0.089139478961705 -9.899144644565077 -0.000038766385701 0.131735611297328 -10.145650300368592 0.000031007277304 0.050571409833855 -10.080587711689752 0.000014266052149 -0.01595295206071 -9.899505488637182 -0.000025957475083 0.097417439511082 -10.049238426687339 0.000024826395436 -0.02425401252927 -9.964699199885747 -0.000023305217066 -0.107415913684593 -9.866684129098505 -0.000022144029145 0.052894261187895 -9.989465115730278 0.000002607359727 0.039717310718262 -9.909257949937034 0.000028176392628 -0.011116375806763 -9.92232901418452 -0.000013195005285 -0.039478401944255 -9.878521710458861 0.000002700506903 0.026460533934728 -9.941375672670471 0.000013520547809 -0.009233561604757 -10.149000896183695 -0.000003192506852 0.194109062432733 -10.093096290812856 0.000049698590871 0.07994353568792 -10.146370861797074 -0.000000886076687 0.101147513694898 -10.06815121517184 -0.0000023182538 -0.029013442422428 -10.150161199500548 -0.000013560597979 -0.083413584759616 -10.059110445718192 -0.000010173485561 0.141761187324049 -10.209198952500174 0.000020137101501 -0.002806759175846 -9.839837718620373 0.000021507054105 0.153831981650863 -10.097742692365614 0.000037979876673 0.133910585339421 -10.069959360647747 0.000042758950454 -0.07636201931616 -10.098896745185167 -0.000004712196401 0.049395982261899 -10.148681038278484 0.000003657967702 -0.070410948144159 -9.953421276463475 -0.00002794174943 -0.03505474851342 -9.973094196580218 0.000004904430438 -0.069391116915067 -9.949736019392605 -0.000013998871143 -0.066211729709052 -9.996502529449142 -0.000007872588344 -0.067241016170357 -10.053737347622111 -0.000023040452467 0.08341228254505 -9.934555268773996 0.000029344222429 0.007576205110208 -9.980822270821582 -0.000006147910219 0.068787299635134 -9.869162379613234 0.000030234364513 0.003919646293146 -10.090590163185036 -0.00002004748515 -0.015917752803714 -9.85953397885541 -0.000029577418174 0.043823588052802 -9.848566513635589 -0.000003835515779 0.035924338742277 -10.120908255693195 0.000008025892456 -0.111964098729151 -10.035737861677585 -0.000019662304157 -0.205456066166859 -9.924447394352056 -0.000023196882689 0.223098550064995 -10.132039890903705 0.000059209951174 0.029775210322617 -10.062700960991091 0.00002490369279 0.019268906299467 -9.84011722902923 -0.000008749090299 0.020394076850867 -9.900747346341317 0.000016924412521 0.135414679386776 -9.929519734152615 0.000046567670622 0.006979777515015 -9.993468950233005 0.000011767238152 0.209509809430261 -10.003575476313392 0.000062433637205 -0.034893106314735 -9.966298710821599 -0.000005140287032 0.074670841992087 -10.125262448215338 0.000004503554366 0.061615253883913 -10.12835270264133 0.00001503618385 0.115402496408139 -10.105025569967921 0.000030014696235 -0.072216918894228 -10.112774815247878 -0.000024476773861 -0.064454740802805 -9.980136376467129 -0.000016861496548 -0.119307965041283 -9.93536036298444 -0.000031248119802 0.001090848910438 -9.952029851112721 -0.000006962049697 -0.17507801562151 -9.962641282061259 -0.000048468756164 0.033809326977978 -10.059184185683705 -0.000010987792689 -0.075465327359629 -9.756170830669721 -0.00000529480579 0.066545885007713 -10.007147920320635 0.000021746727069 -0.043706692489329 -9.907172279836054 -0.000008531521037 -0.168965809045968 -9.893328260086117 -0.000036725241303 0.062346116537387 -10.050079523330709 0.000012240040989 0.203278910007722 -10.019286843857312 0.000059304047445 -0.017847683019917 -10.194876474571737 0.000008484817569 0.057728749884617 -10.082512232367336 0.000029131435416 0.011615341121773 -10.052951301839558 0.000005506700116 -0.074055052121922 -9.8232886577984 -0.000021794068386 0.141420739400347 -9.888603503784077 0.000036379518082 -0.052030412833684 -10.106601410661801 -0.000039740675355 0.136204101467453 -9.842104858787753 0.000039897979038 0.119361638594906 -10.088505313583779 0.000012826094072 0.064951139807119 -10.079898066883096 -0.000000694376779 0.053109079767193 -9.977327963292387 0.000007929998115 0.079522603229707 -10.12537328213288 0.000020241607832 0.006815807683222 -10.086431084061051 -0.00001990308644 -0.035902953188018 -9.944225467941889 -0.000027552604632 0.027925004134636 -10.060316326846955 0.000004649039314 -0.082600275354614 -10.029432539780972 -0.000040700335614 0.151503729638884 -9.81732793067054 0.000023566983108 0.097516637760308 -10.123316702750371 0.000017567118445 0.095682681194574 -10.072595134354485 0.000025354994683 -0.0565888423519 -10.102882915656807 -0.000011956523713 0.098373037024035 -10.050330358730909 0.000021874568191 -0.131769566665871 -10.026864148470477 -0.000034708011979 0.102568706236847 -9.923137258169767 0.000021920039618 -0.073985094797073 -9.964103493908864 -0.000018417560725 -0.05613547015964 -9.867942371931996 0.000003021078015 0.039892867439941 -10.032217666401529 -0.000003736940198 0.142235583947386 -9.975718786211733 0.000062677807412 -0.028177581584881 -9.944254692797486 0.000005900668519 -0.006667772714354 -9.727365080634009 0.000018052960535 -0.075813551518018 -10.049964746171355 -0.000013659078852 0.112360428316404 -10.002366888115894 0.000031609383048 -0.0123295111645 -9.881980010557315 0.000002095252475 -0.003599157989652 -10.188814880884728 -0.000001278788007 -0.095590576695158 -9.942007856574003 -0.000021990423449 0.042472234310086 -10.076480182728691 0.000002392195831 0.250441097346086 -10.009421330104029 0.000044913438418 0.076182132986383 -9.950225607163585 0.000003816534735 -0.0609048247906 -10.052261095586397 -0.000020871822848 -0.000421502918835 -10.104500351048044 -0.000013350483905 -0.094097171524683 -10.036175572310661 -0.00001292287701 -0.019935308566236 -9.951354314899543 -0.000013320777523 0.076507939788535 -9.977986229025888 0.00001450990605 0.040147044563734 -9.961694069666772 0.000009686361062 -0.005005074298572 -10.209617376651662 0.000004221739132 -0.108790505678874 -9.837293897116245 -0.000063654889301 0.065698675450542 -10.145607945798583 0.000027130113257 -0.078822740728978 -9.97030713892946 -0.000053049731909 -0.089697428549389 -10.138640394777621 -0.000008848248216 -0.026727781980796 -10.064768932464133 -0.000022932111808 -0.011747639135872 -9.930266702387506 -0.000010673097099 0.056055126575768 -10.156952725166953 0.000002524328169 0.072660373447035 -9.880630297540039 0.000038837759966 -0.004504772561599 -10.122885105471651 -0.000005587008227 0.088219717059547 -9.971474290933276 0.000044727134858 0.008850234761125 -10.145696572990561 -0.000010505990885 0.159262047588281 -10.203120790202616 0.000060108935477 0.115395690569842 -10.0368972040541 0.000020091087572 -0.114617581245352 -10.07794365508374 -0.000016614941884 0.135170059336809 -9.919042495052086 0.000020456677085 0.069995357398177 -9.932774690696444 0.00002145278153 -0.034621812307952 -10.064001066789965 -0.000007496593795 0.067929126819458 -9.959309838992459 0.00001682810761 -0.061975181370992 -10.006911601311868 -0.000037010329149 -0.146886811866227 -10.015708478303216 -0.000018405781119 -0.08168053738576 -10.020933535166655 -0.000019121686764 -0.129401215001872 -9.906549645565873 -0.000026110814337 0.025441856312869 -10.021512304884597 0.000011591136207 -0.022404411091331 -9.852221184968394 -0.000017547613909 0.183205518906911 -10.053763007592037 0.000038228826492 -0.096419622186 -9.977505463057494 -0.000041952286506 0.249608311290208 -9.905621779339471 0.000051727394652 0.118551577233561 -10.171543397016361 0.000009580392306 -0.033523071827214 -9.93340066355889 -0.000027056720619 -0.009092732664141 -10.127484634803645 -0.000008065315286 0.237696440737878 -9.944186531004089 0.000053007963624 0.169254121633368 -9.864709095184525 0.000036068038106 -0.051071002303952 -9.937148339046592 -0.000031845393025 -0.010249008905432 -10.152716744748709 0.000017351183692 0.084844440003866 -10.053497573169681 0.000013224157646 -0.032561612278115 -9.914795746140774 -0.000014868874466 -0.052711740274091 -9.894042047120781 -0.000053052354943 0.009124778129786 -10.025865117914362 0.000004240256944 -0.0724300882675 -9.917409131863382 -0.000051360115431 0.040426876664197 -9.892740259803427 0.000025232318641 -0.070773994462965 -10.101970059566504 -0.000030238628597 -0.124257270471302 -9.953488101585485 -0.000037464813043 -0.072241202804911 -9.968288293641853 -0.000013062627937 0.091445071817142 -9.929369032719112 0.000016617799489 -0.128893799493173 -10.042349196818186 -0.000025346000753 -0.182341966530582 -10.065012960485937 -0.000029978432381 -0.134929644558031 -10.057240176280285 -0.000049832742527 0.011463134401279 -10.120264236618286 0.000015810720658 0.003404332744468 -10.030206815809922 -0.000047568211974 -0.148942119743672 -10.145410881970417 -0.00006488917238 -0.088640023567613 -9.895409240050768 -0.000088382325198 -0.128291895126936 -9.917556580473159 -0.000126367286856 0.010004495539504 -9.927441279378685 -0.000127161973965 0.058538777770718 -9.893572642212552 -0.000135516200164 0.112799732700023 -10.105782098991938 0.000024411510176 0.011616651341248 -9.880685550465225 0.000020416666888 0.127241756890009 -9.847553404072412 0.000033176506718 0.046369809307176 -10.246693778803968 0.000005602761171 -0.086552441175018 -9.862898010388536 -0.00003322746717 0.102785947361037 -9.940401901986046 0.000026468098533 -0.042272104346927 -9.981556707550087 -0.000013319157493 -0.118623217208437 -9.955231362995912 -0.00003087604188 0.175766694322759 -9.940517738347664 0.000063293118479 -0.088130290179451 -10.107259136075143 -0.000029826902329 0.039769902722348 -9.908623518294764 0.000015524720171 -0.104316922956969 -10.05229705607635 -0.00001707429905 0.035028188498062 -9.920890889467076 0.000003620965598 0.108220853992705 -10.131215718197225 0.000021456068514 0.012700836162189 -10.009922177189459 -0.000003309918708 -0.122865301866423 -9.998698298992652 -0.000047863286138 0.095552148862229 -9.949266144648508 0.000021148942263 -0.079981983409999 -9.844618857836364 -0.000022468595113 0.107917655429727 -9.985856689503017 0.000032609782835 0.010525182428904 -9.979761376682786 -0.000007359786974 0.008691175167796 -9.927048311349962 -0.000001128495868 -0.031711949975772 -9.703629818325076 0.000007750066358 0.12435192202278 -9.962511930433584 0.000021684444469 0.04629926903902 -10.017354174300998 0.000033727103784 0.099602617104431 -9.976055321351943 0.000039089883503 0.06849527842584 -9.872064653793606 0.000046503608785 0.063243746752993 -9.932695897294591 0.00004464146783 -0.148330709325192 -9.937562313754444 0.000061875154212 -0.011093675707056 -10.122381004711151 0.000076419855283 0.031612911898213 -9.969808665592632 0.000151764373817 0.082845447360526 -9.955254182227595 0.000152202503615 -0.138162110609632 -9.824110838053816 -0.000048716008419 0.113559668890344 -9.829961194291155 -0.000005610005631 0.012835273263944 -10.115715036819116 0.000016294590259 0.007739375774619 -10.045084808797826 -0.000029346502396 0.189790460824841 -9.983302117908813 0.000027570479087 0.127419047139291 -9.994587252848277 0.000021821236571 -0.100980195082994 -10.002722411597539 -0.000047358052867 0.001443316271805 -10.063610328830283 -0.000025780769447 0.118897277805584 -10.043452484663323 0.000011513651088 0.209774231408979 -10.072865974302406 0.000056040922129 -0.10831634266003 -10.026041570455106 -0.00003034558122 -0.147514633989862 -10.054665683467336 -0.000044347040148 0.03048097635845 -9.871406224066034 0.000009110122201 0.214429972318667 -10.137133282448598 0.000034502548902 -0.000853757273812 -9.981324219002341 -0.000005064171346 0.170401186170525 -9.883134213647862 0.000036641642242 -0.068583605898991 -10.068888358310147 -0.000014041386724 0.020442994849144 -9.933262419443922 0.000011262955916 0.16892893179248 -10.026348192301947 0.000046312279435 -0.020117051077614 -9.885505188855223 0.000013179793448 0.033441873032478 -9.977858480089418 0.000010027905688 -0.202642676216889 -9.95524485090089 -0.000053176524103 -0.150993463490996 -10.011957039533751 -0.000014890031636 0.063975637556153 -10.004573150785303 -0.000005493133984 -0.132945138072954 -10.017520976439187 -0.000043990717258 0.073287780351062 -9.931512819443032 -0.000181577088259 0.041123351992851 -10.023448599728358 -0.000197928507302 -0.171045376971827 -10.102978864988064 -0.002954393243462 0.197670633286999 -9.816251094749992 -0.002883597164027 0.033741421967727 -10.127614384570599 -0.013270906076805 -0.048242225670776 -10.211981359028583 -0.013288223312649 0.02388098112834 -9.935953504139697 0.000002194702173 -0.130516943893898 -9.951703420880191 -0.000022519244603 -0.050589264736551 -10.119235616354905 -0.000025900858729 0.173970065854206 -9.890434847119264 0.000038802975414 0.167577527431524 -9.909900210406295 0.000059336112328 -0.067448773469421 -9.990028790113843 -0.000031856392408 0.038241010310618 -10.153549187124201 0.000022285820866 0.051958515571284 -9.861713839664388 0.000015976880529 -0.126861616125915 -10.020421130702735 -0.000043039371382 -0.006010895936575 -9.855656249812036 0.000021791423884 0.009643515941234 -9.968017092765349 -0.00000267769893 -0.080034786162754 -10.047315148313412 -0.000019624399286 0.086644324189931 -10.030608858930425 0.000012023270892 0.042305504846547 -9.973970263314914 0.000001167740014 -0.018776056923247 -10.175042018620289 -0.000013466594512 0.09649227784965 -9.967777449029384 0.000027402846619 0.019630774834164 -9.962742584664683 -0.000002432513978 -0.084746186564424 -10.058298932167981 -0.000006502047501 -0.050421807203369 -10.044700549980826 -0.000032146227592 0.043803054111049 -10.111364083818398 0.00001059179035 -0.045315310690818 -10.033180198736634 -0.000006209115633 -0.054078792217684 -9.790999625279888 0.000007027390453 0.017649400531202 -10.06656501619748 -0.000010476474664 -0.248728508886325 -10.007732544324691 -0.000035288736862 -0.05365342707151 -10.174470010073053 0.000004130506452 -0.017974181386036 -9.971590098837936 0.000209621493109 0.028520217636372 -10.13123893890276 0.000207200108622 -0.046084196222298 -10.012865214829729 0.002924163577626 0.075052203492697 -9.936527741479523 0.002953750181107 -0.04059168036082 -10.006069866255007 0.01326932947545 -0.09596838755031 -9.932133499712688 0.013260333486561 0.121086793661996 -10.103879306371304 0.000042320666759 0.08023606536888 -9.970033542467577 0.000014189317953 -0.014439243874812 -10.040756160798923 0.000003222068439 0.061018509048151 -9.931008502129595 0.000012505532429 0.116023147305763 -9.894761231470152 0.000030441434195 0.061744391490082 -10.028351932744169 0.00001271683628 0.103099600537413 -10.081885588085918 0.000029889746787 0.051050763150787 -10.051263015343089 0.000003081163333 0.012170524160608 -10.059716635280978 0.000003235075713 -0.03938457300995 -10.056274122467322 -0.000041213760164 0.012714324139125 -10.06322622416333 -0.000003342160807 -0.021343949346902 -10.166967394928907 -0.000008487160162 0.031268311842636 -10.117778481912358 -0.000006440764448 0.254052491164116 -10.071341645865479 0.000046536865464 0.081331857284343 -9.749386178170219 0.00001164445577 0.074102615927834 -10.088558647038525 -0.000002820663797 -0.136195720958644 -9.922638425423404 -0.000030874799279 0.00274569334656 -10.034999751289611 -0.000021623904405 0.056088570014484 -10.019940046584274 -0.000008415240193 -0.144801701183687 -9.988719552035592 -0.000036142115476 -0.083551537752219 -10.162240830885306 -0.000044774509549 0.13676630496337 -9.890640975018858 0.000055403140684 -0.041083810768765 -10.166694792916045 -0.000011114806536 0.123783895191908 -10.100881394740489 0.000013844273464 -0.075504252845718 -9.932040277259787 -0.000031453101737 -0.112747302063669 -9.917609881898672 -0.000250865148639 0.106956791092773 -9.966468878517835 -0.000186875292065 -0.125953261445614 -9.890243692172083 -0.002970604638034 0.0062744840838 -9.874827134921622 -0.002942566745277 -0.085826384935977 -10.083185618000606 -0.000015136323834 -0.079416022482279 -9.997196606369542 -0.000017914402214 0.088068567724701 -9.975584563267798 0.000019265257023 0.01269691502351 -9.869075202764956 -0.000027172255602 -0.138791164412511 -10.123439464399224 -0.000058464950108 -0.019880441666711 -10.000117697068381 -0.000019597089569 -0.102888708962172 -9.897761490122685 -0.000036157755404 0.13347895624493 -9.996957215638538 0.000023717336115 -0.006271785213152 -10.080830770935931 0.000023257922723 -0.138354881503629 -10.007043116500789 -0.000019322773405 -0.026950059157528 -10.016714889654359 -0.000007847230339 0.152163299147937 -9.919947583449366 0.000055147611943 0.01237405131275 -10.0107689187407 -0.000007139067103 -0.015139015383785 -9.838836703625944 -0.000017540209721 0.052671868781865 -9.842540637828989 0.000025526801468 0.015691751043061 -9.972755155927809 0.000000281908715 -0.015301924550157 -9.988950757147736 -0.000006075539136 -0.079814968060855 -10.09190891962675 -0.000015222476705 0.094853034693803 -10.084726965822306 0.000023062693489 0.02178055031341 -10.03440121112434 0.000027241608129 -0.106056381437342 -9.872543347865665 -0.0000122864079 -0.150255565032999 -10.225773712010016 -0.000006533030538 0.11482781081669 -10.130076907236496 0.000038565513102 0.027049110096598 -10.099645490009763 0.000048041758556 -0.070958923158681 -10.021111138528232 0.000013192298801 -0.087847990949913 -9.964166467860055 0.000206567883409 0.039340221387856 -10.133793872561887 0.000229455046266 0.207281012709561 -9.970792166297814 0.002994425083292 -0.012277314451997 -9.958682206706328 0.002938766601344 0.031903002139154 -10.04507367011885 -0.000005045350023 -0.056234325008486 -9.998671674561662 -0.000025579238097 -0.046283747766636 -10.132080631657477 -0.000018373096276 -0.016945337805093 -10.12086926761083 -0.000013500150351 -0.179581121618212 -10.061855673299162 -0.000061840188679 -0.106381697810462 -10.011499046633533 -0.000019362049977 0.104197337525216 -9.93285529924429 0.000022800806353 0.010998593764772 -10.130157414517951 -0.000014129433983 -0.167609706063754 -9.857373626591428 -0.000051261894189 0.096446975898975 -9.861514042441261 0.000029216609498 0.098247006141841 -10.231188698077753 0.000006781551169 0.12461162794446 -9.969982775950271 0.000044102403572 0.12450722923824 -10.054644737253609 0.000030875678061 -0.023617049732165 -10.079863808903802 -0.000029810058172 0.122003266595635 -10.044443760058135 0.000026277743574 0.002571072853167 -9.99548010419597 -0.000017848798644 0.028181792328195 -9.972882477572325 0.000032893128139 0.139455238644172 -9.911800761426182 0.000036345765339 0.030175078811039 -9.76802755638859 0.000002776575563 0.008289441846252 -9.729473891471681 0.000016113226624 0.144260656780257 -9.943314186057712 0.000043052715885 -0.065195056134126 -9.940006175317988 -0.000039411984821 0.070352937678873 -9.952171985821824 0.000021397586135 -0.102609935966559 -9.946858369566492 -0.000057685637833 -0.031598547484274 -10.065948192710698 -0.000018116296853 -0.015531693963391 -10.176938213354861 -0.000095146125791 -0.090656329893699 -10.060867055445486 -0.000133180345884 0.015172412100245 -9.965751150785426 -0.000201683465136 -0.153327477746795 -9.987657131147181 -0.000232306465718 -0.076002968863981 -10.042910854427586 0.000013898783304 0.083762583692673 -9.802563432375473 0.000027744688094 0.047500853695525 -10.033794475558286 0.000010064819899 0.146731065069553 -9.890471481944296 0.000026578431571 0.043860724100583 -9.958865603655541 0.000028159681715 0.134412321368972 -9.826032163435498 0.000035215096276 0.072400669347753 -9.925133098213234 0.000028693564524 -0.020556731934338 -10.040181020542986 -0.000010833713185 -0.109351237102841 -10.047483135327521 -0.000034514872005 -0.097568783227 -10.20643381062694 -0.000025328108423 0.027800220013095 -10.075200627422802 0.00000025860572 -0.038391430584276 -9.919549869155542 -0.000034263040314 0.02334449267613 -10.086074771644238 0.00000056295869 0.075288570293178 -9.939070995171027 -0.000002283821647 -0.126638809894454 -10.166092599596274 -0.000035448150616 -0.069883644247948 -10.149525848102414 -0.000008074533036 0.015623423588672 -10.0677149103674 -0.000008467586078 0.089370307841202 -10.015958845537879 0.00004378793253 0.076215183138014 -9.965715668009722 0.000007939528721 -0.247843362238364 -10.177520227774721 -0.000041317688056 -0.073300206874666 -10.096829000653294 -0.000011783213098 -0.152420305562432 -9.954826320810685 0.000003778924047 -0.038267001336365 -10.072168296630998 -0.00000696785504 0.165934314292138 -10.013543606208568 0.000073210483278 -0.006355737070544 -10.137981671750845 0.00004077414125 -0.058139677510878 -10.090887022977114 0.000076379720396 -0.06077356840009 -9.908458442079601 0.000097463650371 0.107319376554966 -9.875904050580676 0.000215718920111 0.04369818016679 -9.789483370649656 0.00023136467978 -0.013329793394984 -9.872920738691255 -0.000013422829973 0.059570719163975 -9.967721031838808 0.00002953140295 -0.039345216410696 -10.126546008689676 -0.000007076106567 0.025890926610762 -10.026071153014891 0.000012557661358 0.117819400392139 -10.118548033494744 0.000039266417276 -0.211017751990074 -9.955532517449711 -0.000042852152813 -0.064546569862585 -9.789780377472773 -0.000018729262031 0.177888487402739 -10.032635516113343 0.000034609863729 0.001519872650855 -10.017592550846253 0.000010475518851 -0.061215916199345 -10.081008789225901 -0.000013792819927 0.183293830975533 -10.052930267743152 0.000036707527474 -0.121680511544808 -9.930790684111669 -0.000036824661553 -0.118291174587036 -10.063355797290118 -0.000037091982569 0.052744581727929 -10.269166170218906 0.000012634506794 -0.014607332490607 -10.041978956336235 -0.000030464553059 0.017936408709611 -10.181377258916811 0.000004104369291 -0.109584398761154 -10.04774341748305 -0.000029733707522 -0.019565372074725 -9.888036112203903 -0.000004456697764 0.066991749446717 -9.896260455901189 -0.000009723592589 -0.032010443657875 -10.100228956999404 -0.000006061930039 -0.016904775527045 -10.090179266209264 -0.00003379633996 0.008812445518349 -9.959771700466391 -0.000012941925219 -0.045590995857002 -9.959398034782319 -0.000028035002464 -0.161112145258792 -10.089905188678124 -0.000239166020183 -0.240408925866434 -9.825067108243191 -0.000283569428207 -0.054162041825211 -10.014863241488531 -0.002959682319182 -0.064421948133818 -10.047836415840868 -0.002970680207151 0.115685847303125 -9.952064905764065 -0.013274685191025 -0.091775397601549 -9.998467233403357 -0.01328871954688 -0.232665339757467 -10.10188226939016 -0.000059717074306 0.034590177811802 -9.88676661248379 -0.000008717148063 0.029298095099849 -10.137975716111766 -0.000009567478642 0.10427470967424 -9.940504190521478 0.000004247993047 -0.050523216505995 -10.233960007383875 -0.000023989323621 -0.019523804196759 -9.941033797767361 -0.00001808612964 0.000327979782304 -10.020291130934101 -0.000021606988587 -0.087598392141119 -10.059524805100153 -0.000023862076492 0.074104819768942 -10.137724545867677 0.000018181199519 0.131194596324068 -10.087527581223993 0.00003552676497 0.06746431036715 -10.03909814066717 0.000003218369735 0.057784041851339 -9.809634185253621 0.000014365201237 0.044408879686279 -9.987964227850856 -0.000000459411551 0.195543983803338 -10.094208434964347 0.00005410806972 -0.02049047053479 -9.936575140929122 -0.00001272667731 -0.046631939208714 -10.027355272415036 0.000010803812912 0.09160721531634 -10.062828041455784 0.000015443342016 -0.080866385929347 -9.941127948427946 -0.000006049757535 0.033275835845632 -9.934889732740437 0.000000331723867 -0.10881324573364 -9.95316956133861 0.000020578021298 0.038306115087144 -9.919502305197527 0.000010167736424 -0.172783229909176 -9.963498568338292 -0.000002310242767 -0.03187819264357 -9.969100753333242 0.000007032333659 -0.025615548472515 -10.036991671375496 0.000189643727534 -0.014429457472745 -9.887941002895326 0.000235640094921 0.225302501763831 -10.193117615106127 0.003014471726806 -0.009035977706576 -9.946045032383536 0.002968491577015 -0.032913473222397 -10.053444164735422 0.013277231351462 -0.116331935949513 -10.062573659018827 0.013272781789798 0.070460065517257 -9.978820961878363 0.000018236088904 -0.15425256110742 -9.866106191440768 -0.0000405905617 0.033703439300606 -10.232982209013811 0.000012753053352 0.001843707598255 -9.805919502769342 0.000005596474195 0.093160338267021 -9.850310782311279 0.000014985765999 0.00491675714974 -9.903549649278496 0.000006906978948 -0.113554871720765 -9.923188058786073 -0.000048394386625 0.175635447046554 -10.027820994886588 0.000018726685167 0.050413550239934 -10.056336198421329 -0.000001467034607 -0.123903365942334 -10.117097197416522 -0.000031648329536 0.048156844205374 -10.110741482290441 -0.000014206167137 -0.106479712660369 -10.024542049522118 -0.000020083749666 -0.128570680519393 -10.051213724807461 -0.000026423929113 0.033305773407638 -10.044672375473647 0.000019241594586 0.166669251755667 -9.979432745235378 0.000042701378679 0.015383702652476 -10.163146700467072 0.000013564371265 -0.151285648344916 -9.977177783154636 -0.000029028458256 -0.146602612340632 -10.04613159485177 -0.000033455560951 0.170271161547174 -10.016656335489259 0.0000118193931 -0.089226616004486 -10.008352456663344 -0.000022036350586 0.080161963663361 -10.13341612189963 -0.000013174644349 -0.08998693732562 -10.06963051302653 -0.0000907838717 -0.2210738529199 -10.177866205089831 -0.000130030070748 -0.168328006527046 -9.929527967039867 -0.000310106492589 0.106312275854321 -9.993897189817062 -0.000254414096633 0.01345451799977 -10.000288301584449 -0.003064274836154 0.122984199922963 -10.040533154230383 -0.003022006488978 0.017710892098685 -10.200788836362403 0.000014049146414 0.076175090085328 -9.867746403192994 0.000014849624459 0.111359490377579 -9.990374630422508 0.000009102015214 0.018466272359163 -10.086901453471162 0.000019912760884 0.033485734780121 -10.012953138099652 0.000007789011714 0.009165621106344 -10.054671810065988 0.000002661801138 0.148403791112382 -9.991065998870095 0.000029715981944 0.076395714712294 -10.013468095783832 0.000018402534601 0.03592469830979 -10.045399692299744 -0.000000473220098 0.076445979749701 -10.098652374650475 -0.000006357109289 0.133051092036409 -10.011809404659651 0.000036637513831 0.011442988891567 -9.855016462652213 0.000013207391413 0.048214952318689 -10.175469297566602 0.000011754232089 -0.061109826741262 -10.073243233468544 -0.000022836953199 0.14619139029633 -9.926134186426861 0.000053933684209 -0.106131218683616 -9.934701963935552 -0.000020840945454 0.094318562442415 -9.903636658021735 0.000017781216192 -0.136034709709854 -9.898604541885019 -0.00002336098597 0.036586132854006 