<?xml version="1.0" encoding="UTF-8" standalone="no" ?>
<VTKFile byte_order="LittleEndian" type="UnstructuredGrid" version="0.1">

  <UnstructuredGrid>
    <Piece NumberOfCells="0" NumberOfPoints="801">
      <PointData>
        <DataArray Name="mass" NumberOfComponents="1" format="ascii" type="Float32">1 1 1 1 1 1 1 1 1 1 1 1 1 1 1 1 1 1 1 1 1 1 1 1 1 1 1 1 1 1 1 1 1 1 1 1 1 1 1 1 1 1 1 1 1 1 1 1 1 1 1 1 1 1 1 1 1 1 1 1 1 1 1 1 1 1 1 1 1 1 1 1 1 1 1 1 1 1 1 1 1 1 1 1 1 1 1 1 1 1 1 1 1 1 1 1 1 1 1 1 1 1 1 1 1 1 1 1 1 1 1 1 1 1 1 1 1 1 1 1 1 1 1 1 1 1 1 1 1 1 1 1 1 1 1 1 1 1 1 1 1 1 1 1 1 1 1 1 1 1 1 1 1 1 1 1 1 1 1 1 1 1 1 1 1 1 1 1 1 1 1 1 1 1 1 1 1 1 1 1 1 1 1 1 1 1 1 1 1 1 1 1 1 1 1 1 1 1 1 1 1 1 1 1 1 1 1 1 1 1 1 1 1 1 1 1 1 1 1 1 1 1 1 1 1 1 1 1 1 1 1 1 1 1 1 1 1 1 1 1 1 1 1 1 1 1 1 1 1 1 1 1 1 1 1 1 1 1 1 1 1 1 1 1 1 1 1 1 1 1 1 1 1 1 1 1 1 1 1 1 1 1 1 1 1 1 1 1 1 1 1 1 1 1 1 1 1 1 1 1 1 1 1 1 1 1 1 1 1 1 1 1 1 1 1 1 1 1 1 1 1 1 1 1 1 1 1 1 1 1 1 1 1 1 1 1 1 1 1 1 1 1 1 1 1 1 1 1 1 1 1 1 1 1 1 1 1 1 1 1 1 1 1 1 1 1 1 1 1 1 1 1 1 1 1 1 1 1 1 1 1 1 1 1 1 1 1 1 1 1 1 1 1 1 1 1 1 1 1 1 1 1 1 1 1 1 1 1 1 1 1 1 1 1 1 1 1 1 1 1 1 1 1 1 1 1 1 1 1 1 1 1 1 1 1 1 1 1 1 1 1 1 1 1 1 1 1 1 1 1 1 1 1 1 1 1 1 1 1 1 1 1 1 1 1 1 1 1 1 1 1 1 1 1 1 1 1 1 1 1 1 1 1 1 1 1 1 1 1 1 1 1 1 1 1 1 1 1 1 1 1 1 1 1 1 1 1 1 1 1 1 1 1 1 1 1 1 1 1 1 1 1 1 1 1 1 1 1 1 1 1 1 1 1 1 1 1 1 1 1 1 1 1 1 1 1 1 1 1 1 1 1 1 1 1 1 1 1 1 1 1 1 1 1 1 1 1 1 1 1 1 1 1 1 1 1 1 1 1 1 1 1 1 1 1 1 1 1 1 1 1 1 1 1 1 1 1 1 1 1 1 1 1 1 1 1 1 1 1 1 1 1 1 1 1 1 1 1 1 1 1 1 1 1 1 1 1 1 1 1 1 1 1 1 1 1 1 1 1 1 1 1 1 1 1 1 1 1 1 1 1 1 1 1 1 1 1 1 1 1 1 1 1 1 1 1 1 1 1 1 1 1 1 1 1 1 1 1 1 1 1 1 1 1 1 1 1 1 1 1 1 1 1 1 1 1 1 1 1 1 1 1 1 1 1 1 1 1 1 1 1 1 1 1 1 1 1 1 1 1 1 1 1 1 1 1 1 1 1 1 1 1 1 1 1 1 1 1 1 1 1 1 1 1 1 1 1 1 1 1 1 1 1 1 1 1 1 1 1 1 1 1 1 1 1 1 1 1 1 1 1 1 1 1 1 1 1 1 1 1 1 1 1 1 1 1 1 1 1 1 1 1 1 1 1 1 1 1 1 1 1</DataArray>
        <DataArray Name="velocity" NumberOfComponents="3" format="ascii" type="Float32">0.111232331587548 -10.034308789220894 0.00000785436271 0.060806161906259 -9.936010791942973 0.000001645621144 -0.071209137939137 -9.884120367294114 -0.000002205154744 -0.171897987089823 -9.958248380449241 -0.000005625385701 -0.040013551619716 -9.772090092004481 -0.0000113290716 -0.227184312916519 -9.97746104683187 -0.000018001132744 0.086635397986697 -9.861301161689113 0.000003684529188 -0.103261445624754 -9.96924218640061 -0.000006288170656 -0.035826693843297 -9.969783913076208 -0.00000948014104 -0.111386237353554 -10.032190409065235 -0.000007779593478 0.0047360324411 -9.875743731159016 -0.000012525677175 0.084487513180622 -10.152700295235922 0.000004532627075 0.222421359425408 -9.960602572166012 0.000010875593135 -0.00064328343826 -9.952802337483789 -0.000001919952577 -0.074988128261726 -9.901992808052762 -0.00000695638474 0.015422704263753 -9.844669643378863 -0.000000516464818 -0.022798596051629 -9.910679364655707 -0.000001394875878 -0.132847655102067 -10.090101342159878 -0.000010327014015 0.005415518608053 -10.086089408849571 -0.000004645994942 -0.106203669136718 -9.943926785294973 -0.000000343951302 0.078691488494109 -10.030467506939248 0.000003585795347 -0.006951829327583 -10.071548078414606 0.000004863783579 -0.170505412360598 -9.970829767393628 -0.000013576534394 -0.064103469713538 -9.866702149491557 -0.000001978310673 0.015564047671126 -9.792068542948277 0.000006896381727 0.00385832558489 -10.05617469948344 -0.000000197853739 -0.010556286225959 -9.926632639684545 -0.000007177963958 0.031925560917639 -9.985457401363099 0.000002904421768 -0.089120745546641 -9.900021855733911 -0.000011964186647 0.131719992109319 -10.14206643003782 0.000009569897382 0.050565145817961 -10.084860446497521 0.000004402112846 -0.015940630139546 -9.899073926326057 -0.000008012736635 0.097404972128165 -10.049901034821685 0.000007660773737 -0.02424173131572 -9.964785230701033 -0.000007196737166 -0.107405274240635 -9.866227014537268 -0.00000683952286 0.05289397173932 -9.98964731584176 0.000000801853927 0.039703687953842 -9.909413780615724 0.000008697405864 -0.011110973456811 -9.922154467495396 -0.000004072111122 -0.039479740194131 -9.877912896659831 0.000000832300219 0.026453150035067 -9.941111466367484 0.000004170001205 -0.009230983957274 -10.14955330474624 -0.000000991790229 0.194086360148301 -10.093449357465932 0.000015332147074 0.079944192890057 -10.146357480460436 -0.000000276333077 0.101149838695691 -10.068113537459519 -0.00000071943768 -0.02900891811814 -10.150047864944774 -0.000004192204802 -0.08340983296742 -10.05953933864274 -0.000003148100447 0.141752876404807 -10.209540816854531 0.00000620059785 -0.00281881590753 -9.838939321849491 0.000006624878466 0.153815260282395 -10.097512839059817 0.000011705880996 0.133890465105691 -10.070261634290381 0.000013174202677 -0.076360653642171 -10.099192282772067 -0.000001491532889 0.04939511743323 -10.149193813837632 0.000001090561721 -0.070397312486102 -9.953127648650314 -0.000008694005731 -0.035056946579506 -9.972699297830136 0.000001447073095 -0.06938504342061 -9.949503300617724 -0.000004436757903 -0.06620826262252 -9.996700356416179 -0.000002546188881 -0.067231028531996 -10.05396808680004 -0.000007296208845 0.08339789575126 -9.934688658399072 0.000008871799063 0.007579106684073 -9.979156697377707 -0.000002149013864 0.068772286348178 -9.870351220315666 0.000009077210264 0.003930186212065 -10.086905098853011 -0.000006469278114 -0.01590316389124 -9.863414802004526 -0.000009414496763 0.043825816843233 -9.84763876090938 -0.000001181204819 0.035921607976509 -10.121856486463416 0.000002479599125 -0.111956572841106 -10.035915293939514 -0.000006065399884 -0.205446438235957 -9.923776239852247 -0.000007156298779 0.223070713348176 -10.132827509973261 0.000018275734684 0.029763683419051 -10.063308447126769 0.000007683386368 0.019274732643065 -9.839348043206529 -0.000002699178404 0.020386650044302 -9.90023191932827 0.000005223057943 0.135392158801456 -9.929557378672127 0.000014376156035 0.006973298326733 -9.99371040505706 0.000003635196632 0.209479551491033 -10.003482658745778 0.000019277004207 -0.034891023473252 -9.965908988927636 -0.000001581778176 0.074668573358482 -10.12554045448268 0.000001394424149 0.061608346774102 -10.128713609645503 0.000004648034197 0.115387551882021 -10.105231590205475 0.000009269436488 -0.072205159367001 -10.113102776656948 -0.000007539516611 -0.064446332652515 -9.97994625337919 -0.000005191659409 -0.119292855224596 -9.934948344807186 -0.00000961776751 0.001094544040302 -9.951757634456586 -0.000002127945122 -0.175054707485576 -9.963102917333769 -0.000014915816128 0.033815728053407 -10.059500955145788 -0.000003353596554 -0.075463636563306 -9.755444178148126 -0.000001566107696 0.066534213757615 -10.007282854037321 0.000006776535964 -0.043702721179524 -9.907173645365578 -0.000002515529278 -0.168949391551207 -9.892879611139383 -0.000011218579045 0.062340454582667 -10.04994255966751 0.000003961798135 0.203252009565933 -10.019534521794865 0.000018488288389 -0.017852360262467 -10.194151701475693 0.000002873892536 0.057715033675268 -10.084461817414851 0.000009244013513 0.011612708038742 -10.048764116512194 0.000001982495343 -0.074043895140916 -9.826663925608575 -0.000006444009351 0.141403061461987 -9.888262274177434 0.000011224739914 -0.052011401228901 -10.107067134620127 -0.000012270925268 0.136185888952544 -9.841543012859324 0.000012307728883 0.119355645559359 -10.088694633552661 0.000003957075627 0.064952415355582 -10.08027575829122 -0.000000218445114 0.053105030562214 -9.976887694212268 0.00000244284461 0.079511785961081 -10.125827810511785 0.000006242972192 0.006826159890191 -10.086704149158141 -0.000006151693487 -0.035890271488027 -9.943693883899613 -0.000008511556892 0.027922638875262 -10.060750359683135 0.000001427079559 -0.082581388701196 -10.02940908304109 -0.000012565845786 0.151493443748327 -9.81632523091246 0.000007263061902 0.097508568868059 -10.123548907630422 0.000005410485392 0.095671002938861 -10.073161103892513 0.000007807433747 -0.056582745832781 -10.102992220565627 -0.000003707847817 0.098362037067951 -10.050536521925135 0.000006720649204 -0.131753657584609 -10.026841744571724 -0.000010741322164 0.102557946316024 -9.922989230862864 0.00000671066169 -0.073977391728805 -9.96384070180865 -0.000005734230338 -0.056137681065385 -9.867608321111202 0.000000826347585 0.039896164185855 -10.032536047864964 -0.000001257890457 0.14220497189691 -9.976426590596638 0.000019123884703 -0.028179622076926 -9.943872379490523 0.000001600324597 -0.006676246451955 -9.726287937676695 0.000005096508674 -0.075806662012923 -10.050540207588243 -0.000004690686473 0.112345717128912 -10.002421273530999 0.000008782848172 -0.012331249466918 -9.881641023708623 -0.000000326237757 -0.003598295160219 -10.188119686712593 -0.000002045754077 -0.095581188178746 -9.94329766986151 -0.000008436146713 0.042470521426883 -10.072348639830947 -0.000001272234157 0.250419368983552 -10.013465811605823 0.000011853330952 0.076180847815457 -9.949708381961473 0.000001182042637 -0.060894736850692 -10.052502479195615 -0.00000643796226 -0.000413810934135 -10.105123868065503 -0.000004120644266 -0.094091546073668 -10.03625936538509 -0.000003985340059 -0.019929747488322 -9.951022337133029 -0.000004108814959 0.076500838439396 -9.977397420623495 0.000004484257247 0.040141183588758 -9.96196761996403 0.000002995946499 -0.00500626983411 -10.210216425350175 0.00000130956301 -0.108759139606636 -9.836780472832336 -0.000019640814453 0.065685972919371 -10.145487016836706 0.000008382001621 -0.078796883406784 -9.97038852949226 -0.000016369527773 -0.08969432850497 -10.139045026408349 -0.000002719444799 -0.02671690625922 -10.064770103014158 -0.000007067763338 -0.011742733741231 -9.929948358135269 -0.000003276048344 0.056053705003229 -10.157200686220246 0.000000796500012 0.072641366580761 -9.880351337720734 0.00001201656794 -0.004502800168067 -10.122769237052404 -0.000001694669532 0.088199155356354 -9.971193087953663 0.000013855106594 0.008855521780227 -10.145964536608021 -0.000003189040825 0.159233849588574 -10.20382967409212 0.000018651548076 0.115386474786447 -10.036920361410038 0.00000630433629 -0.114610331834833 -10.077980630833418 -0.000004909607686 0.135160557889925 -9.91852132365203 0.000006532671583 0.069985112690123 -9.932404617888078 0.000007094655886 -0.034618897075382 -10.064437344532703 -0.000001838346641 0.067920847292575 -9.959123523080669 0.00000616773362 -0.061957123140787 -10.006897243510464 -0.000010452323249 -0.146878148534268 -10.014739659733586 -0.000004030315753 -0.081672021821945 -10.022250431920677 -0.000004251363492 -0.12938742252175 -9.902426319886988 -0.000006049287043 0.025436725799541 -10.025423223116096 0.000005587758596 -0.02239472023183 -9.851566614595525 -0.000005422468614 0.183187524197571 -10.054465395828355 0.00001179434635 -0.096400440340825 -9.97737440702676 -0.00001295110729 0.249583136955226 -9.905265440053867 0.000015957728828 0.118546526859562 -10.172012619666742 0.000002951912757 -0.033510318618281 -9.933437471920781 -0.000008359162749 -0.009088180029811 -10.127927667348507 -0.000002498149819 0.237670973852933 -9.944220019161294 0.000016349692497 0.169237896953153 -9.863606197094009 0.00001112448581 -0.051056236296131 -9.936898044698388 -0.000009844185591 -0.010259347294523 -10.153771753799949 0.000005342582641 0.084837596018627 -10.054054997814337 0.000004059273119 -0.032554800892177 -9.914089525855797 -0.000004607310014 -0.052684924704467 -9.893668517122437 -0.000016405287243 0.009123896269807 -10.026359876779864 0.00000127854255 -0.072405358487636 -9.917086130295736 -0.000015906150171 0.04041510704004 -9.892349924296218 0.00000773613644 -0.070760048785153 -10.102609857498887 -0.000009431306453 -0.124239489476325 -9.953662872192716 -0.000011667896406 -0.072235195284264 -9.967872438364431 -0.000004260342985 0.091437807839461 -9.929048975377086 0.000004900036798 -0.128882973154167 -10.042457789547047 -0.000008429806071 -0.182328375015771 -10.065183913261103 -0.000009863725418 -0.134906066944614 -10.057292733798031 -0.000017326801841 0.011455431030058 -10.120349900554734 0.000002935114759 0.003428008714218 -10.030289601525846 -0.000021440964101 -0.148912411918499 -10.146061483539679 -0.000026787022059 -0.088601426924184 -9.893756431446 -0.000047098006912 -0.128234192143611 -9.918459416292713 -0.000058827404051 0.0100607838007 -9.923597065127687 -0.000070344777287 0.058599926869315 -9.8974217624028 -0.000072922541722 0.112788550991844 -10.106760461452586 0.000007541281906 0.011605636263395 -9.879489342014764 0.000006307816322 0.127226043488416 -9.84699025504775 0.000010244802664 0.046367620387738 -10.248048613873864 0.000001732684216 -0.086537575171339 -9.862698217061089 -0.000010244765753 0.102773043952636 -9.939760266613995 0.000008177285514 -0.042266482023198 -9.98187325953487 -0.00000410321926 -0.118609574788477 -9.954956989484414 -0.000009517109957 0.17573706812764 -9.940499874470362 0.000019542806029 -0.088115547191301 -10.107677677626656 -0.000009194341359 0.039763384028998 -9.908536376129874 0.000004802687578 -0.104307932212333 -10.052022065497317 -0.000005251559421 0.035026412244641 -9.920738593068682 0.000001136728758 0.108211934592618 -10.131639660743719 0.000006651060886 0.012702721608048 -10.010218691122644 -0.000000992414873 -0.122842447930955 -9.998741307614139 -0.000014719451578 0.095542586971455 -9.949071605425914 0.000006578605252 -0.079972308596238 -9.844034277348664 -0.000006833931863 0.107901470519802 -9.986050503031793 0.000010166661398 0.010528187907475 -9.980579507797998 -0.000002041692911 0.008690716642608 -9.926862973978373 -0.000000119959311 -0.031715384078614 -9.702433694646995 0.00000300228177 0.124341691081606 -9.962566177200479 0.000007306273722 0.046284247774978 -10.018252441673775 0.000012357174948 0.099584271270736 -9.976195594334872 0.000014008208168 0.068474357860219 -9.871508249650539 0.00002111386592 0.063224021165718 -9.932361353414754 0.000020535316726 -0.148357595207111 -9.9363166158816 0.000038917553415 -0.011126786348441 -10.124416006464854 0.000043405697732 0.03154454003156 -9.965967432715463 0.000077937708152 0.082776558828189 -9.958822059417143 0.000078075822494 -0.138139360925313 -9.82352402208002 -0.000015044348143 0.113563219911479 -9.829542524486293 -0.000001741086915 0.012825717981995 -10.116559618637709 0.000005022618197 0.007753427662599 -10.045622142725424 -0.0000090625657 0.189777774627588 -9.982993368887662 0.000008500291594 0.127407812625648 -9.994344308239107 0.000006724395194 -0.100956517112789 -10.002676182896977 -0.000014629614151 0.001456275004576 -10.063731755953722 -0.000007968151364 0.118892068641608 -10.043570255756057 0.000003539126161 0.209747116655275 -10.07292206191789 0.000017275062963 -0.108302063288738 -10.026317429782422 -0.000009386447701 -0.147494180561532 -10.054452485649358 -0.000013714129852 0.030475813006361 -9.87087601737861 0.000002784260079 0.214413882662241 -10.137803761963395 0.000010606807482 -0.000851675599048 -9.981371595075842 -0.000001608238762 0.17038495579888 -9.882528939400659 0.000011227791901 -0.068576263453684 -10.069150585276549 -0.000004418150341 0.020438252274762 -9.93345999488376 0.000003309429231 0.168908035540235 -10.026361586577794 0.000014131588824 -0.020123918830479 -9.885263894259777 0.000003664680331 0.033437809923114 -9.977697174190975 0.000002693095191 -0.202617817135723 -9.955270777238651 -0.000017699231838 -0.150989000313599 -10.012026118999028 -0.000005876961303 0.063977766835165 -10.004767483725404 -0.000007853811935 -0.132926466998131 -10.017571299359393 -0.000019736543106 0.07336768772199 -9.930726601862567 -0.000108627030532 0.041211930131811 -10.024180781596451 -0.000113671289362 -0.169732837195411 -10.100690281657618 -0.001637777828241 0.198951170467612 -9.817638400195701 -0.00161592279126 0.039639776783259 -10.123759722969609 -0.007374447610457 -0.042336033630583 -10.21666575736463 -0.007379793941089 0.023879435271198 -9.93554729483327 0.000000685391144 -0.130507925049008 -9.951866815764769 -0.000006942313284 -0.050576996011163 -10.120029514465079 -0.000007984238208 0.173951835537972 -9.890106257698285 0.00001198884511 0.167549822092124 -9.908987823981059 0.00001832243663 -0.067432089077984 -9.99048994813881 -0.000009823717665 0.038230283580959 -10.154307560312512 0.000006889392603 0.051950688392637 -9.861472547549209 0.000004943658839 -0.126841675773516 -10.020254533485682 -0.000013271574956 -0.006022517919742 -9.855254700919383 0.00000674607606 0.009644768947642 -9.967789607605445 -0.000000806671888 -0.080026198159522 -10.04784839510539 -0.000006024273009 0.086639989468379 -10.030443021618764 0.000003739663235 0.042305947683699 -9.973833097673396 0.000000407113122 -0.018769507920071 -10.175762869317523 -0.000004111237119 0.096481039700315 -9.967584733242502 0.000008535511354 0.019631068323364 -9.962149985127057 -0.000000667823561 -0.084742934894321 -10.058368081073569 -0.000001839490462 -0.050406026930139 -10.04489000384547 -0.000009756473065 0.043799756372316 -10.112100667020362 0.000003669033681 -0.045313174828635 -10.033100242850059 -0.000001514326085 -0.05408281343509 -9.789913117167474 0.000003448618307 0.017654847554517 -10.066427508655453 -0.000001950316826 -0.248712363054517 -10.008191565226111 -0.00000473048214 -0.053655060792701 -10.174822842033011 0.000007434469826 -0.0180674636514 -9.971140983073296 0.000117280171193 0.028429354609739 -10.131839519368638 0.000116533706029 -0.047383146379666 -10.010372683931143 0.001628452116503 0.07373945397706 -9.938732954305976 0.001637579949021 -0.046489319204735 -10.002150698385252 0.007373959215808 -0.101862095302601 -9.936029992211044 0.00737118184221 0.121065948400651 -10.104275125189115 0.00001305122417 0.080230066892462 -9.969850790887314 0.000004363458001 -0.014441410954533 -10.040913651126999 0.000000982382254 0.061012924187344 -9.930733219426241 0.00000384451646 0.116008346034294 -9.894097354865039 0.00000937537947 0.06173851475541 -10.02850397114794 0.000003906412472 0.10308480812559 -10.082307494815124 0.00000920860517 0.051049891874607 -10.051294102457129 0.000000928042638 0.012169622206203 -10.059667225061286 0.000000974369587 -0.039364350606693 -10.056060206287881 -0.000012747509174 0.0127167949972 -10.063117953708614 -0.000001061537406 -0.021341298672036 -10.167383898631673 -0.000002662605063 0.031271522120678 -10.118640706019404 -0.000002032838096 0.254030675525925 -10.071113070449968 0.000014288115264 0.081325686781299 -9.748292620609462 0.000003524441321 0.074104354340043 -10.088698862122314 -0.000000996973268 -0.136183128535797 -9.922792185795988 -0.000009655320958 0.002756556605756 -10.034978966543514 -0.000006925209428 0.056093357210811 -10.019854826959836 -0.00000284572677 -0.144785363260129 -9.988825240350918 -0.00001173292178 -0.083529404144958 -10.162522082361528 -0.000014401909391 0.13673943004472 -9.889998881670177 0.000015427973173 -0.041078960190293 -10.167197952899174 -0.000005104623512 0.123776596110375 -10.101575492342374 -0.000002717297176 -0.075490176376506 -9.931589789548575 -0.000016694705845 -0.112634748357913 -9.916166407242018 -0.000131443408979 0.107039347080588 -9.967843644377224 -0.000111699659562 -0.124631218329698 -9.887576715412658 -0.001644558336676 0.007581304620903 -9.877262563468651 -0.00163590006465 -0.085819481799534 -10.083575022111564 -0.000004658803324 -0.079408525495836 -9.997284553753172 -0.000005515600319 0.088060006179439 -9.975065383851225 0.000005958442425 0.012710503139044 -9.868557305506796 -0.000008371472926 -0.138762833808086 -10.124199113404085 -0.000018031377531 -0.019870295218193 -10.000390112952058 -0.000006029628494 -0.102871693093422 -9.896934996501253 -0.000011140262734 0.133469465833737 -9.996925464997666 0.000007341384355 -0.006284315034764 -10.081327196691857 0.000007200651728 -0.138347274698364 -10.007234845640788 -0.000005933186823 -0.026946256626553 -10.016595396475685 -0.000002391936515 0.152135999944849 -9.919938062267846 0.000017066711683 0.012378254677434 -10.011100965893506 -0.000002158828314 -0.015129236128652 -9.838406653512106 -0.000005342379321 0.052659260334909 -9.84190494603321 0.000007952270904 0.015691400429625 -9.972783320211095 0.000000212948877 -0.015298684324 -9.989051439429998 -0.000001749505008 -0.079807814884363 -10.092261880230659 -0.000004445561589 0.094842182723213 -10.085352434797453 0.000007366500284 0.021767864100275 -10.03388208026915 0.000008990181343 -0.106051188240965 -9.871607414765748 -0.00000321293263 -0.150252685958193 -10.226404910937326 -0.000000341155633 0.114810465940149 -10.130832828895119 0.000013576989389 0.027027062895382 -10.099562068366604 0.000021810046055 -0.070963591347165 -10.020756684200073 0.000011058702371 -0.087939997301372 -9.962755386013709 0.00011777416055 0.039238044701068 -10.135500580643807 0.000124838632732 0.205948313903396 -9.968197798810046 0.001651904942606 -0.01358350406522 -9.960945434259964 0.001634728624089 0.031906224321545 -10.044994709180024 -0.000001576177353 -0.056222919447456 -9.998332810345472 -0.00000791345145 -0.046274273344954 -10.132391703986556 -0.000005692251841 -0.016938642446033 -10.12133909900084 -0.00000418926776 -0.179552368668259 -10.061970991799326 -0.000019106663526 -0.106372967956525 -10.011035781258228 -0.000006001897718 0.104185314579376 -9.932756385318788 0.000007009452155 0.011005386120012 -10.130929714515323 -0.000004396557701 -0.167585471004469 -9.85648346641357 -0.000015857286253 0.096433961629682 -9.860762826784063 0.000008967559543 0.09824491847902 -10.232284335852549 0.000002045997331 0.124589697254323 -9.96998546844201 0.000013537847571 0.124493609020879 -10.054297364635383 0.000009454940023 -0.023603497407607 -10.080246023241418 -0.000009309358193 0.121991708501823 -10.044574185980567 0.000007991275286 0.002580354625904 -9.99546816445166 -0.000005714575252 0.028163893028648 -9.973156392816133 0.000009948647635 0.139438485419442 -9.911998887095891 0.00001080535281 0.030173186568317 -9.767271729682557 0.00000044475693 0.00828039851877 -9.728675688335716 0.000004010548422 0.144240049537717 -9.943653342885062 0.000012322604216 -0.065176027630021 -9.940402422888221 -0.000014898931489 0.070342751632703 -9.951983608305738 0.000003864422805 -0.102583883239307 -9.946262983388282 -0.000026732135179 -0.031590837285982 -10.066319904530282 -0.000014525215795 -0.015490572086933 -10.176519188158505 -0.000056180375626 -0.090595441742703 -10.062304152450805 -0.000067916329339 0.015262203428543 -9.961443808256162 -0.000113341800984 -0.153223896261194 -9.991401813717907 -0.000122791674844 -0.076011847175735 -10.043405588608508 0.000004310915974 0.083749802940606 -9.801911701803844 0.000008584931234 0.047496283728095 -10.033922018498576 0.000003127102019 0.146719372675737 -9.890783949207533 0.000008224077096 0.043847423143943 -9.958776543147438 0.000008710729333 0.134395496488036 -9.825468350853109 0.000010895394124 0.072387306353233 -9.924827704041393 0.000008879907346 -0.020551138152043 -10.040276508645018 -0.000003310536649 -0.109334776429152 -10.047669173303577 -0.000010616601102 -0.097557982956995 -10.207334354390447 -0.00000776700744 0.027800529160038 -10.075235214667217 0.000000127121567 -0.038374124510052 -9.918946007577969 -0.00001050463361 0.023344308349016 -10.085936719281595 0.000000244436027 0.075290408245171 -9.938686256968086 -0.000000590725665 -0.126622662299254 -10.166454221108351 -0.000010825256219 -0.069880914664298 -10.150215460925889 -0.000002285543482 0.015628340647989 -10.06772228292631 -0.000002409366535 0.089348860666553 -10.015356732038491 0.000013925388253 0.07621231903885 -9.965251452859642 0.000002861573553 -0.247824253750957 -10.178284562359874 -0.00001178746359 -0.073294991018732 -10.097157066670571 -0.000002669575039 -0.152422354516421 -9.95423464947004 0.000003905068606 -0.038262602314 -10.07200861973187 0.000000584986537 0.165902703757809 -10.013377758547357 0.00003152759468 -0.006374201204696 -10.138709521990062 0.000021515170157 -0.058171764960474 -10.09016560302137 0.000050392155737 -0.060816851390625 -9.909535942295236 0.000056896667684 0.10722296988425 -9.871583867324148 0.000117674861123 0.043593834373156 -9.793130456949632 0.000122502613319 -0.013322355499219 -9.872229199675306 -0.000004176208399 0.059557402525772 -9.967799411177884 0.000009079027731 -0.039342413687872 -10.127058148511191 -0.000002216768918 0.025885025025335 -10.026327281071238 0.000003839382848 0.117800142799216 -10.119198549346017 0.000012087532219 -0.210998845326699 -9.955236963717082 -0.000013269769619 -0.064536317065107 -9.78866269753793 -0.000005824673496 0.177871548818564 -10.032691894019331 0.000010627282019 0.001514280658284 -10.017983833148721 0.00000317883356 -0.061209903209179 -10.081414380798599 -0.00000433388468 0.183276658340072 -10.05296618069538 0.00001125246888 -0.121662312863632 -9.929801133319456 -0.000011480157271 -0.118273854777948 -10.063421151009408 -0.000011561592136 0.052738062092608 -10.270021931303489 0.000003703527974 -0.014592459214414 -10.041924637978083 -0.000009599633989 0.017934156546091 -10.181781597564461 0.000000901906446 -0.109569841886454 -10.048066367288222 -0.000009540405189 -0.019563880663628 -9.887021114943336 -0.000002141345602 0.066997434499719 -9.895577446192082 -0.0000037687015 -0.032007683379483 -10.100931649279044 -0.000003846710228 -0.016888320185914 -10.090836980587556 -0.000012404298543 0.00881864080653 -9.95917041704684 -0.00001145624447 -0.045580289878456 -9.95945808325229 -0.000016113769775 -0.161005096036109 -10.090023578801963 -0.000128580623936 -0.24028205946546 -9.824656947035916 -0.000142290233566 -0.052846316792979 -10.012243822545441 -0.001642374845266 -0.063100127966302 -10.050969465682428 -0.001645772646168 0.121585435656672 -9.948042991706782 -0.007378834180322 -0.085869121864789 -10.002263416295058 -0.007383167119637 -0.232637992210006 -10.102233051596961 -0.000018398458376 0.034595187568223 -9.886235606594497 -0.000002656008109 0.029303395183243 -10.137853004426603 -0.00000291991201 0.104273896908126 -9.940611888789753 0.000001346572668 -0.05051213460116 -10.234585621612869 -0.000007365776425 -0.01951614461075 -9.940800516226506 -0.000005539315017 0.000338621076527 -10.01962373725998 -0.000006624389917 -0.0875884986189 -10.059706633188172 -0.000007306837862 0.074096362199166 -10.138158603490126 0.000005664197519 0.131177647489589 -10.088130076207564 0.000011040111674 0.067463023135896 -10.039002671684326 0.00000107171165 0.057778336068964 -9.808507137205762 0.000004550564788 0.044409573268574 -9.987962988433187 -0.000000023894087 0.195518226946088 -10.094917981214017 0.000016899696015 -0.020483990344398 -9.936219192547727 -0.000003728734725 -0.04663826325665 -10.02738521479089 0.0000037000339 0.091599474428582 -10.063344502353829 0.00000513016312 -0.080862907176331 -9.940932499071238 -0.000001104606366 0.033275703466774 -9.934668111424827 0.000000868353469 -0.108823704675916 -9.953158335214415 0.000008324550069 0.038301469354073 -9.919381468229123 0.000005112666165 -0.172781814781778 -9.963325595939201 0.000006751087346 -0.031880158856183 -9.969419535088738 0.00000963557906 -0.025697548100689 -10.036521962694817 0.000113298030849 -0.01453539356116 -9.88795912168205 0.000127495105469 0.223961420889592 -10.191123079300567 0.001659285063787 -0.010356792418823 -9.948518383508608 0.001645092724032 -0.038813715289946 -10.049268370856014 0.007379621576678 -0.122230401624743 -10.066707599961836 0.007378248750144 0.070451186065104 -9.978542288209693 0.000005574714599 -0.154233433185277 -9.866004483103072 -0.000012580791829 0.03369722625665 -10.234257595752499 0.00000388098893 0.001840804999429 -9.805601430749203 0.000001664586224 0.093154360945361 -9.849386951422565 0.000004557402252 0.004913343033262 -9.903497465328496 0.000002062315648 -0.113531642225143 -9.923080786343156 -0.000015014234563 0.1756280891614 -10.02789007542393 0.000005685054798 0.050413388575624 -10.056486974720174 -0.000000544300537 -0.123889026501455 -10.117458186651142 -0.000009899985482 0.048163549121064 -10.110966527660466 -0.000004517111958 -0.106470271983591 -10.024322239161258 -0.000006410040492 -0.128558403207545 -10.051241024808844 -0.000008367593651 0.033297678795538 -10.044471635667497 0.000005560440239 0.166649416292285 -9.979293337506757 0.000012807651974 0.015376460414984 -10.163610519292011 0.000003453174743 -0.151272695719383 -9.977100415854329 -0.000009693737737 -0.14658722481528 -10.045968542697956 -0.000011974593853 0.170266471847903 -10.016516275149304 0.000001999975388 -0.089216729079911 -10.008124979215976 -0.000011178385642 0.080167834309437 -10.133580911619971 -0.000008441045464 -0.089944709622887 -10.069924540617171 -0.000042737286182 -0.2210132136315 -10.17843851868531 -0.000054855607552 -0.168191355345881 -9.927965041122132 -0.000170200742956 0.106422162000421 -9.994571666461173 -0.000153004644831 0.014815473622558 -9.997816512834245 -0.00170448592577 0.12432490041002 -10.043242070932086 -0.0016914389224 0.017704871348164 -10.201872252046837 0.000004386379378 0.076168682903613 -9.8666356029004 0.000004638761053 0.111356453422405 -9.989902771713254 0.000002863311177 0.018455529900639 -10.087412961844272 0.00000621093583 0.033480789510116 -10.013045029435967 0.000002467647705 0.0091638152282 -10.054696438990788 0.000000894652845 0.148390054015639 -9.990912264766354 0.000009240155885 0.076387184842857 -10.013210051432321 0.000005771733554 0.035926280741763 -10.045582350919917 -0.000000054074448 0.076450501582186 -10.099300586059693 -0.000001827624953 0.133032760508583 -10.011413663018372 0.000011443717098 0.011435411986164 -9.854092415975414 0.000004289444614 0.048208489046224 -10.176301764061622 0.000003840499461 -0.061098699635647 -10.073961229275872 -0.000006679172318 0.146165245102193 -9.92567523464724 0.000017020934208 -0.106120943898567 -9.93449749534998 -0.000005699391682 0.094310440289601 -9.903495648001984 0.00000622253954 -0.136023810510092 -9.898114747650627 -0.000005558789346 0.036584753386803 -9.953794096428433 0.000002419467259 -0.153