<?xml version="1.0" encoding="UTF-8" standalone="no" ?>
<VTKFile byte_order="LittleEndian" type="UnstructuredGrid" version="0.1">

  <UnstructuredGrid>
    <Piece NumberOfCells="0" NumberOfPoints="801">
      <PointData>
        <DataArray Name="mass" NumberOfComponents="1" format="ascii" type="Float32">1 1 1 1 1 1 1 1 1 1 1 1 1 1 1 1 1 1 1 1 1 1 1 1 1 1 1 1 1 1 1 1 1 1 1 1 1 1 1 1 1 1 1 1 1 1 1 1 1 1 1 1 1 1 1 1 1 1 1 1 1 1 1 1 1 1 1 1 1 1 1 1 1 1 1 1 1 1 1 1 1 1 1 1 1 1 1 1 1 1 1 1 1 1 1 1 1 1 1 1 1 1 1 1 1 1 1 1 1 1 1 1 1 1 1 1 1 1 1 1 1 1 1 1 1 1 1 1 1 1 1 1 1 1 1 1 1 1 1 1 1 1 1 1 1 1 1 1 1 1 1 1 1 1 1 1 1 1 1 1 1 1 1 1 1 1 1 1 1 1 1 1 1 1 1 1 1 1 1 1 1 1 1 1 1 1 1 1 1 1 1 1 1 1 1 1 1 1 1 1 1 1 1 1 1 1 1 1 1 1 1 1 1 1 1 1 1 1 1 1 1 1 1 1 1 1 1 1 1 1 1 1 1 1 1 1 1 1 1 1 1 1 1 1 1 1 1 1 1 1 1 1 1 1 1 1 1 1 1 1 1 1 1 1 1 1 1 1 1 1 1 1 1 1 1 1 1 1 1 1 1 1 1 1 1 1 1 1 1 1 1 1 1 1 1 1 1 1 1 1 1 1 1 1 1 1 1 1 1 1 1 1 1 1 1 1 1 1 1 1 1 1 1 1 1 1 1 1 1 1 1 1 1 1 1 1 1 1 1 1 1 1 1 1 1 1 1 1 1 1 1 1 1 1 1 1 1 1 1 1 1 1 1 1 1 1 1 1 1 1 1 1 1 1 1 1 1 1 1 1 1 1 1 1 1 1 1 1 1 1 1 1 1 1 1 1 1 1 1 1 1 1 1 1 1 1 1 1 1 1 1 1 1 1 1 1 1 1 1 1 1 1 1 1 1 1 1 1 1 1 1 1 1 1 1 1 1 1 1 1 1 1 1 1 1 1 1 1 1 1 1 1 1 1 1 1 1 1 1 1 1 1 1 1 1 1 1 1 1 1 1 1 1 1 1 1 1 1 1 1 1 1 1 1 1 1 1 1 1 1 1 1 1 1 1 1 1 1 1 1 1 1 1 1 1 1 1 1 1 1 1 1 1 1 1 1 1 1 1 1 1 1 1 1 1 1 1 1 1 1 1 1 1 1 1 1 1 1 1 1 1 1 1 1 1 1 1 1 1 1 1 1 1 1 1 1 1 1 1 1 1 1 1 1 1 1 1 1 1 1 1 1 1 1 1 1 1 1 1 1 1 1 1 1 1 1 1 1 1 1 1 1 1 1 1 1 1 1 1 1 1 1 1 1 1 1 1 1 1 1 1 1 1 1 1 1 1 1 1 1 1 1 1 1 1 1 1 1 1 1 1 1 1 1 1 1 1 1 1 1 1 1 1 1 1 1 1 1 1 1 1 1 1 1 1 1 1 1 1 1 1 1 1 1 1 1 1 1 1 1 1 1 1 1 1 1 1 1 1 1 1 1 1 1 1 1 1 1 1 1 1 1 1 1 1 1 1 1 1 1 1 1 1 1 1 1 1 1 1 1 1 1 1 1 1 1 1 1 1 1 1 1 1 1 1 1 1 1 1 1 1 1 1 1 1 1 1 1 1 1 1 1 1 1 1 1 1 1 1 1 1 1 1 1 1 1 1 1 1 1 1 1 1 1 1 1 1 1 1 1 1 1 1 1 1 1 1 1 1 1 1 1 1 1 1 1 1 1 1 1 1 1 1 1 1 1 1 1 1 1 1</DataArray>
        <DataArray Name="velocity" NumberOfComponents="3" format="ascii" type="Float32">0.111295257330877 -10.031643235031904 0.000101869538543 0.060812890006828 -9.937327191108032 0.0000213378545 -0.071221366549489 -9.884544839862386 -0.000028582539255 -0.171939594869441 -9.958190949270945 -0.000072860397552 -0.040110902084619 -9.774250723986546 -0.000146904597934 -0.227331233323925 -9.977170082370861 -0.000233314067454 0.08666184340864 -9.861479704655144 0.00004774787861 -0.103306884715055 -9.969970116226214 -0.000081593792171 -0.035902459150537 -9.967631169284148 -0.000122948041966 -0.111448175619977 -10.032837081916162 -0.000100914598998 0.004632574086806 -9.877650504494731 -0.00016243372128 0.084521073884422 -10.149320302417179 0.000058795448768 0.222510050587154 -9.95910594171368 0.000140943786546 -0.000660886635594 -9.953772826559669 -0.000024865183805 -0.07504342895392 -9.902715991078512 -0.000090323949628 0.015421724141999 -9.848486952045288 -0.000006745837168 -0.022808765166339 -9.91238181351086 -0.000018059138027 -0.132933470550324 -10.085909004695225 -0.000133615759248 0.005369772548184 -10.083659623116683 -0.000060134612001 -0.106203748081682 -9.946846463805764 -0.000004428621045 0.078722816997982 -10.030463087032805 0.000046418518473 -0.006914089533758 -10.06802111500409 0.000063115795621 -0.170618694295071 -9.969510767214407 -0.000176093806039 -0.064122791006448 -9.870950479376953 -0.000025657084586 0.015627646873043 -9.795305809753874 0.000089355530107 0.003853302535459 -10.05381735614381 -0.000002513722738 -0.010614117274212 -9.924515778908246 -0.000093230503689 0.031948532422612 -9.992139657983927 0.000037671747727 -0.089220199632927 -9.898024585922716 -0.000155096864628 0.131803809098834 -10.15303800784306 0.000124029608406 0.050598004675981 -10.070224727625586 0.00005711750122 -0.016006941015624 -9.901370581804581 -0.000103869104269 0.097471027385086 -10.046382657588838 0.000099312177201 -0.024307185135544 -9.964330296706875 -0.000093124139301 -0.107461223811635 -9.868645928679815 -0.00008845093292 0.052895648371295 -9.988676930335634 0.000010500309876 0.039776534620957 -9.908592295092635 0.000112644636882 -0.011140008138464 -9.923085531770084 -0.000052876863783 -0.039472781669216 -9.881168688403903 0.000010769468174 0.026493241172068 -9.942511072299752 0.000054123036286 -0.009244396068672 -10.146596387624813 -0.000012615911236 0.194207097593386 -10.091578135382738 0.000198965471043 0.079940640912842 -10.146424910398306 -0.000003577475228 0.101137402663022 -10.068308911360003 -0.000009271861651 -0.029033417444068 -10.150648645808921 -0.000054264829703 -0.083430332349795 -10.057250289217532 -0.000040613722594 0.14179770949986 -10.207724923294855 0.000080742591385 -0.002753122810373 -9.843717259400117 0.00008614019937 0.153904575648462 -10.098724735374681 0.000151972041401 0.133997030404466 -10.068670463276604 0.000171273549047 -0.076367832571172 -10.097623320807863 -0.000018583105001 0.049400466963003 -10.146463792396647 0.000014960770722 -0.070469873436949 -9.954668391065923 -0.000111155052564 -0.03504534388517 -9.974820666273082 0.000020166271871 -0.069417061849625 -9.950691809617966 -0.000055062939287 -0.066226559750064 -9.995702638679933 -0.000030555328965 -0.067283570832255 -10.052485367686977 -0.000090699236691 0.083475675632778 -9.934234552400577 0.000118878843353 0.007564406544181 -9.985334735833082 -0.000022581608648 0.068853453315534 -9.866710291907147 0.000123058685844 0.003874972715587 -10.09841895752108 -0.000077906357827 -0.015980017494108 -9.850857414468319 -0.000115945274024 0.043813177515195 -9.852580789343749 -0.000015393531878 0.035934925866182 -10.116809615960833 0.00003209086345 -0.111995227828322 -10.034979814611209 -0.000078733564239 -0.205497544795179 -9.927332125472351 -0.000092868014793 0.223220150454845 -10.12861687244048 0.000236880651996 0.029826134264591 -10.06008596202723 0.000099772284116 0.01924231110028 -9.843457958281762 -0.00003496963313 0.02042644536086 -9.902964479519827 0.000067789356165 0.135512311981388 -9.929364399625065 0.000186253426342 0.007007797678024 -9.992429553836091 0.000047031646859 0.209640517731934 -10.003972244851745 0.0002496159261 -0.034902559150152 -9.967985588000687 -0.000020596915099 0.0746810779835 -10.12406364104095 0.000017994182657 0.061645598869738 -10.12678464437638 0.000060116188168 0.115467958941741 -10.10413099048975 0.000120061828789 -0.072268230633593 -10.111364507068231 -0.000098110813186 -0.064491905043643 -9.980964109308733 -0.000067537975147 -0.119373427501173 -9.93712464719858 -0.000125316824553 0.001074893916794 -9.953205646106133 -0.000027998318905 -0.175178875747795 -9.960659214456973 -0.000194366924088 0.033781276169178 -10.05782405773113 -0.000044250383277 -0.075473607104278 -9.759287865429153 -0.000021764780187 0.066597046989874 -10.00657953553115 0.000086512237079 -0.043724659784249 -9.907118293384162 -0.000035109160498 -0.169037002492669 -9.895319686070167 -0.000147861109874 0.062370732778279 -10.050410272065708 0.000047496340567 0.203393558500486 -10.018473270933992 0.000235765785046 -0.01782857668123 -10.195325354168558 0.000031828303077 0.057788503956272 -10.076754651713275 0.000114494655856 0.011625575496383 -10.062945824497366 0.000019706960343 -0.07410546331155 -9.816814765501411 -0.000089472488519 0.141498620963705 -9.890091906703498 0.00014556502523 -0.052113974272568 -10.104575637921309 -0.000158908884376 0.136282792399487 -9.844519392606935 0.000159741689862 0.119387366344437 -10.087690198031632 0.000051272789251 0.064946090556321 -10.078280414898767 -0.000002719838363 0.05312697737566 -9.979227894759806 0.000031753911876 0.079570087657455 -10.123400857570816 0.000080988793526 0.006770819030992 -10.085247255376247 -0.00007947534517 -0.035958621917015 -9.946527952675908 -0.000110121795054 0.027936051816894 -10.058460454802429 0.000018670680036 -0.082681718390564 -10.029536368264294 -0.000162864817588 0.1515480138167 -9.821657641692516 0.00009434583775 0.097551326456591 -10.122314703660297 0.000070365672017 0.095733101509924 -10.070135414191233 0.000101628793801 -0.05661513190435 -10.102407631063215 -0.000047656637144 0.098420901615012 -10.049438488507608 0.000087778011565 -0.131838765036753 -10.026964275215009 -0.000138617561451 0.102615379648118 -9.923771554704926 0.000088176799091 -0.074018104744974 -9.96524028662988 -0.000073361699299 -0.056125759675104 -9.869378143135151 0.000013001117515 0.039878925897685 -10.030851468936842 -0.000014079234966 0.142368897601919 -9.972666072350075 0.000252551116143 -0.028168149710483 -9.945916769404958 0.000025445587153 -0.006629131884843 -9.731965869421959 0.000076093729104 -0.075841829301269 -10.047532694218807 -0.000050800309264 0.112429433761851 -10.001864920191837 0.000134348751679 -0.012318166384811 -9.883707341229076 0.000016259277899 -0.003597113658801 -10.189126428486796 0.00000829352926 -0.095624388515656 -9.93912321305633 -0.000074632229407 0.042487139685534 -10.086235485805123 0.000025902508727 0.250542394741359 -10.000034827429303 0.00019595796004 0.076187712170841 -9.952451603459718 0.000015188026694 -0.060949015475317 -10.051218149464885 -0.000083540159511 -0.000454381630588 -10.101810805707737 -0.000053279512165 -0.094121289010907 -10.035816323895435 -0.000051692712818 -0.019959578733667 -9.95278925563497 -0.000053320302076 0.076538910739601 -9.980541086144465 0.000057927146245 0.040172883908183 -9.960513968548625 0.000038639150814 -0.005000274202635 -10.207018828348238 0.000016843589894 -0.108927046017115 -9.839510512337506 -0.000254684299507 0.065753632764462 -10.14612135986553 0.000108443451006 -0.078934942333321 -9.969961838965098 -0.000212171494168 -0.089710492520996 -10.136905795552915 -0.000035498355822 -0.026774953822007 -10.064761924844255 -0.000091801714162 -0.011769326350056 -9.931630280640412 -0.000042873284256 0.056061065747022 -10.155884180278365 0.00000994002855 0.0727426131226 -9.881841360919614 0.000155114449704 -0.004513509970943 -10.123383736441379 -0.000022616567586 0.088308415722248 -9.972696628785334 0.000178582653304 0.008826770165049 -10.144538534315766 -0.000042472805461 0.159383633351268 -10.200039337233989 0.000239749683286 0.115435569440295 -10.036804774718435 0.000079555727786 -0.114648250819266 -10.077766536918665 -0.00006820576334 0.135209862619085 -9.921307743438184 0.000080041645481 0.070037359610765 -9.934315447286707 0.000082016574485 -0.034635580683024 -10.062178588067768 -0.000033837167884 0.067961667142024 -9.959856804463188 0.000059377701858 -0.062057254422815 -10.007230129038781 -0.000155866959632 -0.14693090564322 -10.017213921451614 -0.000087004339192 -0.081723753460766 -10.017929124200624 -0.000089899330056 -0.129468699055505 -9.916271672843315 -0.000120746092677 0.025456521346164 -10.012704434911122 0.000030047864393 -0.022447714588355 -9.855053632855421 -0.000070074670312 0.183284987234911 -10.05072893865206 0.000152941690198 -0.096501594779442 -9.978068127329221 -0.00016787377848 0.249717532367302 -9.90715001433937 0.000206994851242 0.11857251195749 -10.169521480881661 0.000038297282894 -0.033578658054914 -9.933243879181274 -0.000108142462309 -0.009113819027819 -10.125555561410971 -0.000032133137565 0.237807077027759 -9.944043021478064 0.000212181974079 0.169324531447035 -9.869463460605363 0.000144329238043 -0.05113542115826 -9.938230196338559 -0.000127238785048 -0.010202664431669 -10.148175411264859 0.000069494162091 0.084874105140916 -10.051094904127805 0.000053148385501 -0.032591141512864 -9.917850294777967 -0.000059354202326 -0.052827408137359 -9.895647824128915 -0.000211919475794 0.009128533120532 -10.02373360281948 0.000017242516675 -0.072537235387813 -9.918811467183259 -0.000204976556393 0.040478027800489 -9.894428673230641 0.000101368719682 -0.070834207966766 -10.099201415664457 -0.000120248509632 -0.124333936711602 -9.952742310062989 -0.000148967082195 -0.072266278987403 -9.970069884547117 -0.00005038695612 0.091476638940678 -9.930753174357775 0.000068338046818 -0.128938694259691 -10.041861428738498 -0.000096608915092 -0.182397415558752 -10.064298850257609 -0.000114992306404 -0.135024507337201 -10.056947897254076 -0.00018352106011 0.011503528412708 -10.119951400109183 0.000079046940628 0.003326749735356 -10.029575255446279 -0.000135368050277 -0.149045533608943 -10.142866242312582 -0.000204693757008 -0.088732026530107 -9.899826155233503 -0.000192287253739 -0.128466996817057 -9.916387029913549 -0.000344076183197 0.009879294714911 -9.935962700071514 -0.000254744465971 0.058392549339304 -9.88503530445437 -0.000288153266959 0.112847537159342 -10.10156041573093 0.00009756471699 0.011664658510292 -9.885863599939192 0.000081602325623 0.12730999080794 -9.850001288840893 0.000132703664757 0.046380156558735 -10.24083744653465 0.000022463457249 -0.086616834862507 -9.863759693250964 -0.000133111010637 0.102841557983615 -9.943142091239405 0.000105792436662 -0.04229692930088 -9.98019361005918 -0.000053369480403 -0.118682770921317 -9.956426197669739 -0.000123711207489 0.175895657915329 -9.940593216972205 0.000253190989355 -0.08819418671879 -10.105447830562863 -0.000119371631157 0.039798082264587 -9.909001940690013 0.00006206856351 -0.104356411174592 -10.053479298699623 -0.000068430571569 0.035035751680039 -9.921546219122954 0.000014307927547 0.108259115137274 -10.129386563599244 0.000085614123047 0.012692480147162 -10.008644758402289 -0.000013460237051 -0.122963758749999 -9.998514326244534 -0.00019193678044 0.095593622839202 -9.950105805721138 0.000084211385156 -0.080024871659096 -9.847135086615081 -0.00009070139216 0.107987654354726 -9.985024374494564 0.00012960673571 0.010511219523938 -9.976245556467017 -0.000031366378572 0.008692244557132 -9.927855849349038 -0.000006368398201 -0.031699679414897 -9.708775968019394 0.000026113208387 0.124393888645107 -9.962297451703622 0.000081742415919 0.046357887787726 -10.013398585143403 0.000119075550197 0.099674982346224 -9.975513914194027 0.000140627083424 0.06856075789157 -9.874177260138008 0.000131068502958 0.063303442746541 -9.934407359181153 0.000123764226645 -0.148289849464803 -9.940227792605183 0.000086218301042 -0.011025306034675 -10.116312850655213 0.00014443127931 0.031790796350093 -9.978314292644715 0.000353178684195 0.083025790379287 -9.947934326578405 0.000354834834437 -0.138259742764088 -9.826621414473172 -0.000194787696249 0.113544980722692 -9.831785311162925 -0.000022334120271 0.012874953958984 -10.112088257628024 0.000065151202997 0.007677875784106 -10.042754304615814 -0.000117481936731 0.189846018154062 -9.984636424970066 0.000110341390339 0.127467919406308 -9.995633094788573 0.00008735938383 -0.101082468767232 -10.002923008159467 -0.000189273142918 0.001386808429421 -10.063084846552904 -0.000103117500556 0.118919776109764 -10.042942219807182 0.000046148868946 0.209891909315048 -10.072622870251449 0.000224403587425 -0.10837889648231 -10.024845290279563 -0.00012120505395 -0.147603949730422 -10.055582914085262 -0.00017723723272 0.03050393580223 -9.87369994469754 0.000036626312111 0.214500428645061 -10.134256843424174 0.000138261556447 -0.000862743712483 -9.981123766316973 -0.000019939814855 0.170472464474661 -9.885725773266048 0.000147243043108 -0.068615196820163 -10.067758200618 -0.000055414352253 0.020463988203449 -9.93241076058257 0.000046435289794 0.169020664828282 -10.02629288553576 0.000186515782992 -0.020085324117544 -9.886537409542948 0.000056020501078 0.033460700312854 -9.978565614616139 0.000043383542046 -0.202746406838403 -9.955103696560743 -0.000202201539004 -0.151007879171299 -10.011687322825063 -0.000049213243114 0.063989937240281 -10.00363081142698 0.000027893533796 -0.133002982502938 -10.017407199587634 -0.000126097487304 0.073139991817308 -9.934300265519946 -0.000300254633378 0.040935913022977 -10.020893752691432 -0.000365734799591 -0.17401286409629 -10.107494851907122 -0.005938322888484 0.194841714270072 -9.815589050765633 -0.005655313157764 0.020473757014523 -10.136186211159469 -0.026530474900551 -0.061541591713386 -10.199863712276448 -0.026599640978552 0.023887404381242 -9.937693080123418 0.000008743475118 -0.130555729214735 -9.951002814443255 -0.000090161405131 -0.050643491425928 -10.115810802094463 -0.000103749508025 0.174049238850445 -9.89185282569585 0.000155057061342 0.167698241804711 -9.913828925581573 0.000237344617554 -0.067521371862377 -9.98804143674724 -0.000127402125789 0.038288952410301 -10.15028984139207 0.000089084813727 0.051992031528607 -9.86275222286546 0.000063834779669 -0.126949030217837 -10.021141542819768 -0.000172253401717 -0.005960139687776 -9.857399975882668 0.000087001791414 0.009638313173779 -9.969003204817067 -0.000010872929374 -0.080072378627891 -10.045004189214227 -0.000078860421587 0.086662540335919 -10.031318138423 0.000047888816838 0.042303171013142 -9.97455840710078 0.000004284474916 -0.018804445721178 -10.171925046760453 -0.000054207605383 0.096541284822014 -9.968611203495014 0.000109123116294 0.019629207187957 -9.965310548676635 -0.000010447786245 -0.084761589323498 -10.057990402967596 -0.000027415930664 -0.050490753395215 -10.043892254243909 -0.000129908985838 0.04381531146489 -10.108204157419303 0.000039189349812 -0.045326042902061 -10.033535135061747 -0.00002810018712 -0.05406417445595 -9.795645127346102 0.000017793841554 0.017620639420731 -10.067182880759548 -0.000052347256693 -0.24882278019505 -10.005637167785862 -0.000191156693986 -0.053669443155706 -10.173053082194118 -0.000033394577532 -0.01776734963098 -9.972914363605934 0.000412550770599 0.028716557590642 -10.129246401060021 0.000402826578833 -0.043177048575597 -10.018268182149905 0.00581724857516 0.07801961238793 -9.932376556923947 0.005935749912509 -0.027326946866278 -10.014922330206367 0.026524215693355 -0.082720768253335 -9.923381141403915 0.026488229514637 0.121177387517956 -10.102172106219234 0.000169334282683 0.08026234000757 -9.970818404431725 0.000056964605846 -0.014430542218637 -10.040072408807367 0.000012962195123 0.061042839020643 -9.932201054827393 0.000050172518316 0.116087963611143 -9.897623664579552 0.000122066257284 0.06176996540871 -10.027693869854387 0.000051032444008 0.103163944977897 -10.080076422222264 0.000119663572059 0.051054668287559 -10.051128495731275 0.000012542214981 0.012174521918077 -10.05992818126562 0.000013200859115 -0.039472336068454 -10.057198776023135 -0.000164715265235 0.012703769759096 -10.063687578663783 -0.000013105737542 -0.021354587212063 -10.165167392208859 -0.000033648146485 0.031253998299436 -10.114023268527635 -0.000025415844755 0.254146864028517 -10.072322506891885 0.000186834738406 0.081358395669314 -9.754138376618497 0.000047092000114 0.074095369434464 -10.087953003464468 -0.000010263397252 -0.136248479454304 -9.921990448678899 -0.00012251094416 0.002699435717917 -10.0350820108142 -0.000084433193961 0.056067700409545 -10.020307316441951 -0.000031688464563 -0.144869588959796 -9.988255787273278 -0.000139938045058 -0.083644855489491 -10.161040055093473 -0.000174323535546 0.136888624721727 -9.89337842290573 0.00023515640783 -0.041098351525213 -10.164548522489937 -0.000030887849105 0.123840734202394 -10.09767869011301 0.000112098290158 -0.075539079558915 -9.934202731649657 -0.000069181494004 -0.113031441472542 -9.921505868125918 -0.000565928263849 0.106801947151562 -9.962859317737719 -0.000309739557514 -0.128953611185771 -9.89635480154506 -0.005988320328527 0.00333980070486 -9.869721678128412 -0.005876351435223 -0.085856891627805 -10.081504469442434 -0.000060661792854 -0.079448323707116 -9.996819601158641 -0.000071786795986 0.088105316998821 -9.97781805640728 0.000076987586706 0.012637667430555 -9.871312042998289 -0.000108840293676 -0.138913544776414 -10.120156629021352 -0.000233961257944 -0.019924664807154 -9.998938855247788 -0.000078583019642 -0.102961999971435 -9.90133067210969 -0.000144842374993 0.133520196629263 -9.997090046531861 0.000094770067224 -0.00621793080875 -10.078699649703994 0.000092839485633 -0.138387467313449 -10.006215910844791 -0.000077579547595 -0.026966703057472 -10.017226692020255 -0.000031621642041 0.152280542049312 -9.919990407679133 0.000220190235534 0.012355483460928 -10.009331952827088 -0.000028904999752 -0.015181429969468 -9.840698393960286 -0.000070696663784 0.052726214844054 -9.845289150553526 0.000101472767785 0.015693206254891 -9.972630321306742 0.000000102801024 -0.015315910492589 -9.988521382261339 -0.000025302629007 -0.079847165101513 -10.09037832229439 -0.00006301536979 0.094900097906306 -10.082024646915622 0.000090293504439 0.02183418291799 -10.036633754059519 0.00010422400685 -0.106080797570918 -9.876587513425577 -0.000053845452771 -0.150274719999416 -10.223000212501942 -0.00003975747024 0.114895881952817 -10.126876147702633 0.000140699980658 0.027117564118577 -10.099799309913156 0.000135683548965 -0.070965187314947 -10.022837904696557 -0.000003856324119 -0.087651619012168 -9.967930100040752 0.000388643924135 0.039580300665701 -10.128746765903598 0.000480175861777 0.210327761554126 -9.97658988744416 0.006083786451998 -0.009345920257505 -9.954326303882414 0.005861084152129 0.031888790752285 -10.045413856084018 -0.000020049706724 -0.056283849441742 -10.000137435080276 -0.000102252444876 -0.04632428527366 -10.130736150483536 -0.000073257113012 -0.016974423243792 -10.118842894650331 -0.000053815674737 -0.179707142677056 -10.061353041744828 -0.000247317543754 -0.106419601776833 -10.013492913453673 -0.000077252408006 0.104251105127021 -9.933292193045279 0.000091435116731 0.010970168224183 -10.12684281797487 -0.000056230735405 -0.167712747864455 -9.86117920041904 -0.000204717862464 0.096503052852441 -9.864739614655425 0.000117366430045 0.09825358274353 -10.226489347131816 0.000027474937478 0.124707635153118 -9.969972959804284 0.000177088269222 0.124566809029493 -10.056146602882825 0.000124221309537 -0.023675940329664 -10.078208441576111 -0.000118534621003 0.122054145686657 -10.043880838357415 0.000106200746131 0.002531877308644 -9.995523774095716 -0.000069671442586 0.028260014097 -9.971695708852986 0.000133188793172 0.139528615589943 -9.910950455666843 0.000148763756902 0.030185400071829 -9.771301577708682 0.000014477901752 0.008333273378457 -9.732905527067601 0.00007216876876 0.144353217457641 -9.941881523226721 0.000180039495854 -0.065267741735078 -9.938231351062557 -0.000135525210063 0.070407224162868 -9.953037698061259 0.000107864106797 -0.102689839856777 -9.949166149591704 -0.000158357272446 -0.031597893588651 -10.064616176448125 0.000000134640938 -0.015607707423737 -10.176055146414361 -0.000162514711417 -0.09081875273846 -10.057349885643479 -0.000314742043295 0.014977269459176 -9.976293507117214 -0.000390381039392 -0.153582462955372 -9.979533718952203 -0.000512941652406 -0.075963586389941 -10.040791082690955 0.000055391293489 0.083816846662275 -9.8053620561424 0.000110803802793 0.047520650033974 -10.03323824287809 0.000040094694727 0.14678188680603 -9.889128754535671 0.000106198983913 0.043918405925108 -9.959253306545129 0.000112574234318 0.134486154406204 -9.828478002476503 0.000140664014885 0.072458062685214 -9.926449823120015 0.00011466182589 -0.020581652975783 -10.039760378889536 -0.000043565069363 -0.109422151487279 -10.046684705693123 -0.000138401030024 -0.097615824849323 -10.202557733678914 -0.000101817322373 0.027798607233204 -10.075051180724415 0.000000659556892 -0.038467291961725 -9.922133987141732 -0.000137620651345 0.023344714217038 -10.086668057016384 0.000001676003322 0.075281074575044 -9.94074433065702 -0.000010033923691 -0.126709430161723 -10.164530759516065 -0.000142773102268 -0.069896610044076 -10.146541006138225 -0.000034052124221 0.015601554872734 -10.067686518019686 -0.000035497533359 0.089462770879709 -10.018545175988432 0.000171860538138 0.076225705837993 -9.96772577892602 0.000028419244752 -0.247930855069147 -10.174213836297499 -0.000173085030835 -0.07332602994327 -10.095438029640533 -0.000055002777412 -0.152422811346446 -9.957306176461032 -0.000007134486698 -0.038296306036064 -10.072909602362129 -0.000050013274875 0.166038745088155 -10.013990933308811 0.000220376397927 -0.006309055400103 -10.135095351794615 0.000090625540073 -0.058101776370223 -10.091321905486723 0.000087315192194 -0.060688182514698 -9.906506473161572 0.000171740968051 0.107542130268202 -9.886504226209713 0.000446480602091 0.043956683000852 -9.781787835983959 0.000509113767452 -0.013362263134563 -9.8758914792627 -0.000053380387063 0.059628936416344 -9.967383979400926 0.000118501684894 -0.039357146681191 -10.124349401984473 -0.000028059621997 0.02591618892298 -10.024964877515552 0.000050532312343 0.117904716816286 -10.115710193321293 0.000157228852763 -0.211100015117083 -9.956806850141652 -0.000171053656412 -0.064592070055242 -9.794621114039234 -0.000074502375266 0.177963282479817 -10.032390639074171 0.000138867293821 0.001544124476633 -10.015923544032885 0.000042315378476 -0.061242267012478 -10.07926774860243 -0.000054574983237 0.18336837980452 -10.052773032468087 0.000147445265943 -0.121760419720726 -9.935084004043416 -0.000146430506865 -0.118365920438954 -10.063073462821908 -0.000147551374035 0.052775101971636 -10.265438803573943 0.000052090454968 -0.014671142541343 -10.042213139588249 -0.000120302893356 0.017947353077522 -10.179646663997135 0.000019376507161 -0.109646909809432 -10.046351183396588 -0.000116012095776 -0.019568622045415 -9.892395180819294 -0.00001163289893 0.066970274841428 -9.899212545050561 -0.000032646163952 -0.032014886834544 -10.097166608585624 -0.000008221673651 -0.016968278034449 -10.087374870400124 -0.000119236444922 0.008814138802883 -9.962253380267574 0.000008753758205 -0.045608782817405 -9.959247472795326 -0.000051675342455 -0.161371028166431 -10.088780999649869 -0.000513020271825 -0.240753131103004 -9.827441907038256 -0.000690556903699 -0.057130817320853 -10.020813599122878 -0.005935400857633 -0.067418133061556 -10.039680604691123 -0.005979237463762 0.102424479196798 -9.961366871545327 -0.026519559841079 -0.105065502666973 -9.99013911870604 -0.026575663320988 -0.232782431793828 -10.100382599923071 -0.000239173340787 0.034566686375033 -9.889048315024993 -0.000035197132061 0.029274524011878 -10.138495902718914 -0.000038539385623 0.104278240100528 -9.940043248230381 0.000016735944445 -0.050571604726402 -10.231250979073801 -0.000096339376569 -0.019557028196228 -9.942044096051646 -0.000072708743431 0.000282123023631 -10.023177929497798 -0.000086827171028 -0.087641972833375 -10.058731090181698 -0.000095999962223 0.074141163658367 -10.135854952806758 0.000072373465384 0.131267528545604 -10.084950050494408 0.000141566701191 0.067469570595377 -10.03951025604057 0.000012196106014 0.057807881368474 -9.814497830147848 0.000056577107302 0.044405496630076 -9.98797427416288 -0.000002782061892 0.195655644099238 -10.091124811786791 0.000214778552569 -0.020519066830002 -9.938109014618396 -0.000052544822468 -0.046605556517942 -10.027218806037231 0.000040221600453 0.091639251944051 -10.060603556366049 0.000058824427711 -0.080884209654487 -9.941960567140635 -0.000030286580236 0.0332733260375 -9.935859862500088 -0.000004879433295 -0.108775262827188 -9.953191311923815 0.000066358667775 0.038318754984138 -9.920052911350501 0.000024676230287 -0.172817813269179 -9.964140783959483 -0.000069816180098 -0.031897754269701 -9.967832732007702 -0.00003246854028 -0.025466563347828 -10.038409795928619 0.000314845394375 -0.014175748152707 -9.888476233789588 0.000498859176779 0.228381578437301 -10.196370998768934 0.006154620678655 -0.006045368255059 -9.940720985413284 0.005970665371952 -0.01964864975763 -10.063404133155611 0.026529684138001 -0.103075464737611 -10.052790493662652 0.026511859883056 0.070497882991201 -9.980002436605909 0.000073355566644 -0.154334496636277 -9.866548289853522 -0.00016200114591 0.033730190722764 -10.227453307636846 0.000051423745131 0.001856319541104 -9.80729782481931 0.000022925384038 0.093186889105916 -9.854336544660955 0.000060663669791 0.00493122893167 -9.903778105884935 0.000028111918244 -0.113654415583316 -9.923654618261649 -0.000192847849734 0.175669065056341 -10.027516439005465 0.000075728233248 0.050413949613954 -10.055687510402858 -0.000005205777788 -0.123965840847931 -10.115537870310902 -0.000125593621032 0.048128507017397 -10.109768238717487 -0.000055786273545 -0.10652001054533 -10.025487038771772 -0.0000786224968 -0.128623979082211 -10.051097144496088 -0.000103955837688 0.033342578497469 -10.045538992124857 0.000080207225966 0.166757330044284 -9.980040921893645 0.000173831148446 0.015417273144366 -10.161136192323983 0.000060144216818 -0.151338787179641 -9.977521354693693 -0.000110167677165 -0.146662619145933 -10.046814086704629 -0.000120456800676 0.170297106504551 -10.01727456172337 0.000060613851789 -0.08925305606427 -10.009282125628486 -0.000052616945304 0.080152869574448 -10.132757943604197 -0.000017260355819 -0.09011492266697 -10.068140271431258 -0.000243679642628 -0.221282630332622 -10.175613440837736 -0.000400486560058 -0.168640056621424 -9.933912338595398 -0.000636200849129 0.106118001945787 -9.993349114139146 -0.00041364307738 0.010404229246481 -10.005556794993689 -0.00610984708163 0.120021464881844 -10.034243900787532 -0.005940771389163 0.017736865562196 -10.196133927491495 0.000055908869064 0.076202553739683 -9.872520635110254 0.000058965581584 0.111372988127651 -9.992417980676484 0.000036034214357 0.018512271564353 -10.0846849862239 0.000079046766546 0.033506842748151 -10.012560942219316 0.00003055372537 0.009173257496889 -10.054563202471366 0.000010038636378 0.148463129714254 -9.991728138840303 0.000118410040015 0.07643235096155 -10.014579689716772 0.000072923300001 0.035917642192291 -10.044615211664764 -0.000002559342937 0.076425451777439 -10.095871499066442 -0.000026531373594 0.133129837708938 -10.013506782062873 0.000145390900962 0.011475875663034 -9.858996998256879 0.000051059605629 0.048241860469808 -10.171868158622431 0.000045246770204 -0.061160096172742 -10.070135912003968 -0.0000942954431 0.146304190075995 -9.928133697877811 0.000212693222145 -0.106178404664198 -9.935572219642218 -0.000089265422172 0.0943509456633 -9.904257044492933 0.000065175934712 -0.136088161881628 -9.900709936090285 -0.00010691895656 0.036586084827705 -9.954055307636555