<?xml version="1.0" encoding="UTF-8" standalone="no" ?>
<VTKFile byte_order="LittleEndian" type="UnstructuredGrid" version="0.1">

  <UnstructuredGrid>
    <Piece NumberOfCells="0" NumberOfPoints="801">
      <PointData>
        <DataArray Name="mass" NumberOfComponents="1" format="ascii" type="Float32">1 1 1 1 1 1 1 1 1 1 1 1 1 1 1 1 1 1 1 1 1 1 1 1 1 1 1 1 1 1 1 1 1 1 1 1 1 1 1 1 1 1 1 1 1 1 1 1 1 1 1 1 1 1 1 1 1 1 1 1 1 1 1 1 1 1 1 1 1 1 1 1 1 1 1 1 1 1 1 1 1 1 1 1 1 1 1 1 1 1 1 1 1 1 1 1 1 1 1 1 1 1 1 1 1 1 1 1 1 1 1 1 1 1 1 1 1 1 1 1 1 1 1 1 1 1 1 1 1 1 1 1 1 1 1 1 1 1 1 1 1 1 1 1 1 1 1 1 1 1 1 1 1 1 1 1 1 1 1 1 1 1 1 1 1 1 1 1 1 1 1 1 1 1 1 1 1 1 1 1 1 1 1 1 1 1 1 1 1 1 1 1 1 1 1 1 1 1 1 1 1 1 1 1 1 1 1 1 1 1 1 1 1 1 1 1 1 1 1 1 1 1 1 1 1 1 1 1 1 1 1 1 1 1 1 1 1 1 1 1 1 1 1 1 1 1 1 1 1 1 1 1 1 1 1 1 1 1 1 1 1 1 1 1 1 1 1 1 1 1 1 1 1 1 1 1 1 1 1 1 1 1 1 1 1 1 1 1 1 1 1 1 1 1 1 1 1 1 1 1 1 1 1 1 1 1 1 1 1 1 1 1 1 1 1 1 1 1 1 1 1 1 1 1 1 1 1 1 1 1 1 1 1 1 1 1 1 1 1 1 1 1 1 1 1 1 1 1 1 1 1 1 1 1 1 1 1 1 1 1 1 1 1 1 1 1 1 1 1 1 1 1 1 1 1 1 1 1 1 1 1 1 1 1 1 1 1 1 1 1 1 1 1 1 1 1 1 1 1 1 1 1 1 1 1 1 1 1 1 1 1 1 1 1 1 1 1 1 1 1 1 1 1 1 1 1 1 1 1 1 1 1 1 1 1 1 1 1 1 1 1 1 1 1 1 1 1 1 1 1 1 1 1 1 1 1 1 1 1 1 1 1 1 1 1 1 1 1 1 1 1 1 1 1 1 1 1 1 1 1 1 1 1 1 1 1 1 1 1 1 1 1 1 1 1 1 1 1 1 1 1 1 1 1 1 1 1 1 1 1 1 1 1 1 1 1 1 1 1 1 1 1 1 1 1 1 1 1 1 1 1 1 1 1 1 1 1 1 1 1 1 1 1 1 1 1 1 1 1 1 1 1 1 1 1 1 1 1 1 1 1 1 1 1 1 1 1 1 1 1 1 1 1 1 1 1 1 1 1 1 1 1 1 1 1 1 1 1 1 1 1 1 1 1 1 1 1 1 1 1 1 1 1 1 1 1 1 1 1 1 1 1 1 1 1 1 1 1 1 1 1 1 1 1 1 1 1 1 1 1 1 1 1 1 1 1 1 1 1 1 1 1 1 1 1 1 1 1 1 1 1 1 1 1 1 1 1 1 1 1 1 1 1 1 1 1 1 1 1 1 1 1 1 1 1 1 1 1 1 1 1 1 1 1 1 1 1 1 1 1 1 1 1 1 1 1 1 1 1 1 1 1 1 1 1 1 1 1 1 1 1 1 1 1 1 1 1 1 1 1 1 1 1 1 1 1 1 1 1 1 1 1 1 1 1 1 1 1 1 1 1 1 1 1 1 1 1 1 1 1 1 1 1 1 1 1 1 1 1 1 1 1 1 1 1 1 1 1 1 1 1 1 1 1 1 1 1 1 1 1 1 1 1 1 1 1 1 1 1 1 1 1 1 1 1 1 1 1 1 1 1</DataArray>
        <DataArray Name="velocity" NumberOfComponents="3" format="ascii" type="Float32">0.111287825288583 -10.03195426216336 0.000090858465797 0.060812075054044 -9.937174419398948 0.000019031674395 -0.071219850290062 -9.884495175051923 -0.000025492913445 -0.171934715430738 -9.958197382008841 -0.000064992947829 -0.040099544888045 -9.773998335190344 -0.000131029243295 -0.2273140311169 -9.977203955150832 -0.000208107195604 0.086658810433208 -9.861458959634287 0.000042589164193 -0.103301557527753 -9.969884972724733 -0.000072770476248 -0.035893609000405 -9.967881912682287 -0.000109658734917 -0.111440854698685 -10.032761909952942 -0.000090005306186 0.004644635824431 -9.877428559768608 -0.000144877279082 0.08451712044117 -10.149713714496173 0.000052438575218 0.222499670763441 -9.959279914692182 0.000125718310769 -0.000658875536791 -9.953660292317206 -0.000022180765471 -0.075036903484819 -9.902631550050714 -0.00008055344369 0.015421750067636 -9.848040892533749 -0.00000601243399 -0.022807587531008 -9.912184199934636 -0.000016109964917 -0.132923340828136 -10.086398182409802 -0.000119196458433 0.00537514687504 -10.083941923677815 -0.000053644591979 -0.106203696486792 -9.94650772092041 -0.000003952374406 0.078719103714864 -10.030463871732891 0.000041409338564 -0.006918517280472 -10.068431651882717 0.000056291152637 -0.170605298925565 -9.969663892847258 -0.000157060686293 -0.064120524440322 -9.870459319574415 -0.000022884582157 0.015620118993612 -9.794924979466041 0.000079702689166 0.003853847152121 -10.054107768563291 -0.000002247051797 -0.010607348917757 -9.924745601520527 -0.000083141055617 0.031945889827349 -9.991527169635582 0.000033600209441 -0.089208613502542 -9.898092134392662 -0.000138338892784 0.13179395499907 -10.152263988720019 0.000110631707793 0.050594215024804 -10.071425977242173 0.000050940641508 -0.015999124164178 -9.901102838435255 -0.000092641712117 0.097463346565678 -10.046792103691846 0.000088584516451 -0.024299536070005 -9.964383022053696 -0.00008307466638 -0.107454760934744 -9.868365304734283 -0.000078908902226 0.052895437930056 -9.988790185267954 0.000009358210673 0.039767995955969 -9.908687109690565 0.000100482338182 -0.011136587947328 -9.922976694540674 -0.000047152012238 -0.039473576146332 -9.88078744836249 0.000009611016422 0.026488481383571 -9.94234849512436 0.000048272822963 -0.009242862957279 -10.146942896537691 -0.000011269489837 0.194193010369622 -10.091795585995776 0.000177453992947 0.0799410620437 -10.146417499838744 -0.000003185268796 0.101138861284118 -10.068286818205864 -0.000008268100376 -0.029030511115533 -10.150578844115588 -0.000048394201694 -0.083427884486486 -10.057517796747788 -0.000036231854293 0.141792415448244 -10.207936279074469 0.000072003800502 -0.002760942821159 -9.843160423181779 0.00007682886507 0.153894119163066 -10.098584535884118 0.000135556459529 0.133984644376705 -10.068854353579159 0.000152755196163 -0.076366997479297 -10.097805617693879 -0.000016586424401 0.049399772199292 -10.146782571714349 0.00001332606704 -0.070461393944804 -9.95449027255547 -0.000099182106266 -0.035046680118825 -9.974571970592114 0.000017957427648 -0.069413338277067 -9.950556157136816 -0.000049163152906 -0.066224422351497 -9.995815452175787 -0.000027302898161 -0.067277470489671 -10.05267371806549 -0.000080974256407 0.083466500368098 -9.934271938303116 0.000105958089457 0.00756608363397 -9.98478119955165 -0.000020245912477 0.068843885362901 -9.86696796710023 0.000109648953549 0.003881369063698 -10.097581299158213 -0.000069610839854 -0.015971083810917 -9.851816927241975 -0.000103546658921 0.043814731011228 -9.852004060538651 -0.000013725632458 0.035933491106513 -10.117398066127745 0.000028623345069 -0.111990854727299 -10.035088036422602 -0.00007021917199 -0.205491590604726 -9.926919238039744 -0.000082827233992 0.223202572944889 -10.129109838381202 0.000211284858042 0.029818731351412 -10.060460567343963 0.000088976314907 0.019246238501838 -9.842977057749776 -0.000031196467086 0.020421771373457 -9.90264693996158 0.000060455085681 0.135498254209898 -9.929386002463918 0.000166132541233 0.00700376899176 -9.992578350821944 0.000041954334931 0.209621733155775 -10.003915645824138 0.000222660368798 -0.034901167318878 -9.967743204363925 -0.000018369999686 0.07467957407662 -10.124235683686862 0.00001605030395 0.061641198501922 -10.127010448447322 0.000053620912224 0.115458483359884 -10.104259844240651 0.00010708870955 -0.072260819514237 -10.111566506881227 -0.000087495148664 -0.064486504096942 -9.98084480346283 -0.000060238294467 -0.119364009275433 -9.936872484993463 -0.000111755675948 0.0010771827739 -9.953036930052946 -0.000024967398777 -0.175164373533749 -9.960942508453622 -0.000173335147193 0.03378533099682 -10.058018978949857 -0.00003945510726 -0.075472354221984 -9.758841334312043 -0.00001937991629 0.066589630634143 -10.006660667260926 0.000077188985413 -0.043722033899267 -9.907127375135488 -0.00003126277021 -0.169026766895472 -9.895031875098278 -0.000131836115086 0.062367155996944 -10.050371985571974 0.000042440233039 0.203377168935414 -10.018581393122124 0.000210368801277 -0.01783127707442 -10.195355203964146 0.00002850345341 0.057779841975759 -10.077488386246753 0.000102231071431 0.011624149063417 -10.061797460185126 0.000017702235468 -0.074098094557845 -9.817456604526905 -0.000079686294164 0.141487316151699 -9.889877082001025 0.000129836126153 -0.052101857456242 -10.104867551887041 -0.000141745084116 0.136271481663207 -9.8441735677808 0.000142470087582 0.11938368144447 -10.087807059166558 0.000045738550956 0.064946782045562 -10.07851169086238 -0.00000243133569 0.053124376652127 -9.978955285463362 0.000028322565665 0.07956320930179 -10.123684739339145 0.000072240268496 0.00677730465661 -10.08541756118025 -0.000070901492868 -0.035950554904992 -9.946196940147765 -0.000098231560904 0.027934404298164 -10.058725425747683 0.000016648821598 -0.082670023291752 -10.029521226721515 -0.000145260998133 0.151541661884013 -9.821036172882973 0.00008415069897 0.097546355823559 -10.122458551133585 0.000062759258966 0.095725858621852 -10.070489538225344 0.000090633694494 -0.056611356093394 -10.102476190992219 -0.000042520021963 0.098414002311666 -10.049566696184648 0.000078279538208 -0.131828780689721 -10.026949668606166 -0.000123652449577 0.102608665502271 -9.923680708924772 0.000078621708057 -0.074013371348684 -9.965077087893949 -0.000065445398364 -0.056127152871557 -9.869172367814119 0.00001154435641 0.039880921474197 -10.031047100738869 -0.000012605723306 0.14234969086954 -9.973103202143147 0.000225169247537 -0.028169520466501 -9.945678117698831 0.000022595797301 -0.006634766643811 -9.731307070545382 0.000067666899996 -0.075837806751129 -10.047879914849004 -0.000045512934793 0.112419251066069 -10.001946369317844 0.000119417711012 -0.012319940921758 -9.883450229864854 0.000014089718761 -0.003597596730793 -10.189176692793126 0.000006691615741 -0.09561978927439 -9.939442738544422 -0.000067267150315 0.042484730277548 -10.085121413717408 0.000022243981112 0.250527573704798 -10.001096572275761 0.000173930901986 0.076186909150842 -9.952132719477563 0.000013555539514 -0.060942619973019 -10.051367846126613 -0.000074511245147 -0.000449685376842 -10.102196584864283 -0.000047540284509 -0.094117837769403 -10.035867643079568 -0.000046110716693 -0.019956071041192 -9.95258331699358 -0.000047555547366 0.076534438975373 -9.980173494678908 0.000051681136343 0.040169132259799 -9.960683148249549 0.000034474951576 -0.005000938929542 -10.207392636067487 0.000015024459801 -0.108907347613172 -9.839192364720928 -0.00022716686136 0.065745727559867 -10.14604848713142 0.000096732980651 -0.078918781710359 -9.97001087246014 -0.000189256061708 -0.089708640955593 -10.137153811429595 -0.00003165722743 -0.026768161918074 -10.064763157637392 -0.000081880994958 -0.011766175101826 -9.931435306775947 -0.000038229585012 0.056060225390885 -10.156037446413588 0.000008876104632 0.072730780259275 -9.881666821251629 0.000138369680972 -0.004512241963657 -10.123312429057881 -0.000020157077778 0.088295669577082 -9.972520512556954 0.000159301539593 0.008830180744544 -10.144704964496773 -0.000037860333672 0.159366161007069 -10.200482985413325 0.000213878055531 0.115429817772223 -10.036817677216531 0.000071001562632 -0.114643922611232 -10.07779268585551 -0.000060748066689 0.135204203696725 -9.92098213433462 0.000071490481191 0.07003142188567 -9.934096345895707 0.000073353099466 -0.034633583244157 -10.062437697807219 -0.000029980129921 0.067957090970038 -9.959787041680547 0.000053383938736 -0.06204529882427 -10.007175783709362 -0.000138620661753 -0.146924312608591 -10.017091798191945 -0.000076903062657 -0.081717302434735 -10.018266101541073 -0.000079480147162 -0.129458705230545 -9.915162161289052 -0.000106845346051 0.025454679609312 -10.01368292948013 0.00002766021089 -0.022441386382301 -9.854646639324349 -0.000062516704829 0.183273439538645 -10.051164435186218 0.000136419156302 -0.096489878079649 -9.977987541908572 -0.000149728946685 0.249701803290527 -9.906931510658572 0.000184628334548 0.118569571160451 -10.169811544395822 0.000034167331669 -0.033570632804742 -9.933266157774248 -0.000096465831714 -0.009110683439167 -10.12583358047268 -0.000028673423598 0.237791131774932 -9.944063495219677 0.000189247734119 0.169314387023093 -9.868781718824437 0.000128734008249 -0.051126113470736 -9.938074901124336 -0.00011350095929 -0.010209444709963 -10.148826055938379 0.000061983800872 0.084869837319322 -10.051439407781331 0.000047389410896 -0.032586886689899 -9.917411700384042 -0.000052946520876 -0.052810794751854 -9.895417807807112 -0.000189044882065 0.009128000387337 -10.024039090409717 0.000015361682985 -0.072521805572224 -9.918609559622427 -0.000182858591843 0.040470660555896 -9.894186241345547 0.000090393024128 -0.070825541126929 -10.099599098427888 -0.000107288459241 -0.124322914398661 -9.952848712102471 -0.000132923337924 -0.072262707900422 -9.969814994476193 -0.000045042879612 0.091472121319142 -9.930554637403329 0.000060856801335 -0.128932291732613 -10.041932042349792 -0.000086412721426 -0.182389600424544 -10.064400294463352 -0.000102826287342 -0.135011112316608 -10.056992337312739 -0.000164527760966 0.011497475267691 -10.119994657521737 0.000069674509896 0.003337040587261 -10.029675064059083 -0.000123636364177 -0.149031544708507 -10.143223051059561 -0.000185466346081 -0.08872149077527 -9.899287907218852 -0.000180020327287 -0.12844447707706 -9.916458503347584 -0.000315426421378 0.009893011704597 -9.93502516506801 -0.000240677661585 0.058409288100845 -9.885974582669434 -0.000270480014778 0.112840702722365 -10.102165990166727 0.000087031079086 0.011657728508373 -9.885119681133169 0.000072791333978 0.127300156726018 -9.849648808373285 0.000118364755401 0.04637860203349 -10.241678366829625 0.000020028032683 -0.086607567868431 -9.863635995832201 -0.000118712766239 0.102833574875193 -9.94275108843725 0.000094369331393 -0.042293322069203 -9.980389004847536 -0.000047596241432 -0.118674166558452 -9.956253854531347 -0.000110327980427 0.175877048999409 -9.940582555521386 0.000225831619629 -0.08818499120296 -10.105708063684396 -0.000106475168413 0.039794028230481 -9.908947426842003 0.000055360294975 -0.104350691825645 -10.053310095282393 -0.000061032632015 0.03503467079399 -9.921452357405828 0.00001277334209 0.108253632286264 -10.129648997892629 0.000076374915477 0.012693691918443 -10.008827914224199 -0.000011995922854 -0.122949636243649 -9.99854051944788 -0.000171173198149 0.095587642128534 -9.949985437107022 0.00007513185042 -0.080018641383201 -9.846774460570035 -0.00008085858223 0.107977574270366 -9.985143585102914 0.000115649730796 0.010513267508698 -9.976748481809759 -0.000027870988581 0.008692126047597 -9.927739702973794 -0.000005582368355 -0.031701341219901 -9.708038079606371 0.000023544307635 0.124387934652097 -9.962327513829562 0.000073175728541 0.046349646965139 -10.013969440332893 0.000107045420099 0.099664812946124 -9.975589229555284 0.000126260157824 0.068552220414884 -9.873884477614908 0.000119805215766 0.063295780555206 -9.934153140231343 0.00011327368259 -0.148292991950825 -9.939940410686114 0.000085414523022 -0.011032448168772 -10.117088158912706 0.000137335299666 0.031769470827813 -9.97737932583038 0.000328475320855 0.083004095920041 -9.948698742069116 0.000329962855058 -0.138245758492827 -9.826262735020682 -0.000173750524263 0.113547043864981 -9.831522202815082 -0.000019929263627 0.01286937166303 -10.11260732828714 0.000058121405181 0.007686776445742 -10.0430895287022 -0.000104775487243 0.189837980217588 -9.984444937452437 0.000098419731759 0.127460872162642 -9.995483302841654 0.000077918888416 -0.10106777209159 -10.002894102460754 -0.000168839819503 0.001394970581837 -10.06316033237905 -0.000091972547852 0.11891654644252 -10.04301566216461 0.000041161106827 0.209874959532003 -10.072657809410167 0.000200144366233 -0.108369839741069 -10.025017353127664 -0.000108121737521 -0.147591039381422 -10.055451601941609 -0.000158094164315 0.030500592233167 -9.873370393271463 0.000032662537714 0.21449024054868 -10.134668258105879 0.000123318411648 -0.000861444914265 -9.981152227168048 -0.000017798286698 0.170462145917226 -9.885355399147976 0.000131299010299 -0.068610655951038 -10.067920391674775 -0.000049472943065 0.020460956813446 -9.932532604755094 0.00004134394175 0.169007396859415 -10.026300814141468 0.000166303030608 -0.020089978620735 -9.886389600071601 0.000049792816972 0.033457957185631 -9.978463686368354 0.000038523508921 -0.202731585726058 -9.955125041772851 -0.000180914202449 -0.15100598217432 -10.011724984195556 -0.000044436874348 0.063987028582992 -10.003769473195083 0.000022264896432 -0.132995471706855 -10.017420160564484 -0.000115089821863 0.073154174917048 -9.933920852192291 -0.000290183514328 0.040955958358514 -10.021239685107167 -0.000348582664463 -0.173682081929744 -10.107036439651148 -0.005605266180316 0.195152555928663 -9.815497001408207 -0.005352808470166 0.021947806801396 -10.135241182139193 -0.025057580711105 -0.060063144488022 -10.201315168397866 -0.02511928883706 0.023886497907843 -9.93744457282946 0.000007798025654 -0.130550168212926 -9.951102887060038 -0.00008041467614 -0.050635606875585 -10.116302011373568 -0.000092528224036 0.174037828473014 -9.891649431666822 0.000138318163739 0.167680813548815 -9.913265978035778 0.000211698585265 -0.067510903710811 -9.988326361710188 -0.000113648037992 0.038281942425104 -10.150756477276989 0.00007946153354 0.051987235463442 -9.862603393319205 0.00005694159928 -0.126936373959269 -10.021038154132203 -0.00015363890662 -0.005967477807838 -9.857148944643633 0.000077611490131 0.009639042477868 -9.968861283496434 -0.000009689644359 -0.080066942580126 -10.045336473878931 -0.000070315124526 0.086659954745868 -10.031216922442516 0.000042723553536 0.042303530843976 -9.974474298139382 0.00000384262191 -0.01880036502142 -10.172372771108201 -0.000048335288941 0.096534193843914 -9.968491290845053 0.000097349400912 0.019629444178667 -9.964941440823075 -0.000009277248889 -0.084759298418595 -10.058035391922838 -0.000024376195656 -0.050480811863094 -10.044007605517114 -0.00011580709094 0.043813637761618 -10.108655785099916 0.000035117940939 -0.04532444670313 -10.033483834732607 -0.000024892680528 -0.054066255093032 -9.794980694258768 0.000016409416327 0.017624976152067 -10.067093512034733 -0.000046140825205 -0.248808299923688 -10.005941954617166 -0.000167874680058 -0.053666318245573 -10.173252851713446 -0.000027165775065 -0.01779011536979 -9.97274560913262 0.000390334438668 0.028695304117139 -10.129512273204837 0.000381665323183 -0.043499035248338 -10.017682006293642 0.00549728792574 0.077688914629199 -9.932782200089701 0.005602970206398 -0.028800587845555 -10.013936793483316 0.025051993283591 -0.084191938215478 -9.924352076040254 0.025019896331414 0.121164329881248 -10.102417073381261 0.000151041144233 0.080258538334587 -9.970706048805466 0.00005079418012 -0.014431741887447 -10.040170799002977 0.000011559569279 0.061039328906779 -9.93202954038939 0.000044742300716 0.116078585254508 -9.897213109506362 0.000108854436447 0.061766279425456 -10.027788408052658 0.000045510406683 0.103154669058982 -10.080335113675547 0.000106733969295 0.051054098950099 -10.051147811190882 0.000011173199121 0.012173941724368 -10.059898013184357 0.000011755904545 -0.039459689104411 -10.057066023349678 -0.000146923426331 0.012705280666145 -10.063621979040047 -0.000011706224309 -0.021353111089649 -10.165425827062871 -0.000030025322259 0.031256096055454 -10.114564571200134 -0.000022686512378 0.254133302468645 -10.072182197999187 0.000166610593987 0.081354599983684 -9.753454096340791 0.000041981289849 0.074096409688729 -10.088039829037079 -0.000009207487011 -0.13624099889637 -9.92208216806331 -0.000109325177375 0.00270606913434 -10.035070606197413 -0.00007542272038 0.056070749643658 -10.02025491796382 -0.000028366183627 -0.144859947682645 -9.98832228227927 -0.000125060068301 -0.083631531378358 -10.161212041005887 -0.000155745824493 0.136870824878938 -9.892986527175092 0.000209041566696 -0.041096495757893 -10.164856316374445 -0.000028263554028 0.123831696326225 -10.098145385325678 0.00009700659169 -0.075534992739848 -9.93388449675607 -0.000064681854325 -0.112997799082353 -9.921029507177531 -0.000527750589458 0.106817026152574 -9.963295306102379 -0.000299262240378 -0.128618464682347 -9.895668514928522 -0.005650672987554 0.003665520428704 -9.870263077104957 -0.005550778458432 -0.085852458451784 -10.081745728271228 -0.000054101477031 -0.079443689251885 -9.996873500966469 -0.000064023401022 0.088100050445636 -9.97749822839744 0.000068672819809 0.012646220962022 -9.870990915163874 -0.000097072026177 -0.138895958815949 -10.120627887054102 -0.000208681871393 -0.019918282587978 -9.999108175652299 -0.000070080675429 -0.102951485448777 -9.900818456480872 -0.000129180952567 0.133514246550301 -9.997071376292618 0.000084530832557 -0.006225652777149 -10.079004536167131 0.000082821783083 -0.138382807873036 -10.006334604699678 -0.000069179848962 -0.02696429975529 -10.017153704461954 -0.000028194398776 0.152263738473383 -9.919984058396158 0.000196427352014 0.012358175108552 -10.009538367569201 -0.000025765448648 -0.015175334183276 -9.840430703756564 -0.00006303569668 0.052718403411282 -9.844894401664616 0.000090546759047 0.015692983720007 -9.972648376320487 0.000000146189449 -0.015313919712485 -9.988582725096725 -0.000022518230403 -0.07984247662688 -10.090598262760427 -0.000056090452892 0.09489328417275 -10.082412766288572 0.000080638083177 0.021826476916665 -10.036313590656295 0.000093214247935 -0.106077223150378 -9.876007433119547 -0.000047781101233 -0.150271709577402 -10.223400206608849 -0.000034743623793 0.114886364767538 -10.127332406112476 0.000126211911029 0.027108704152433 -10.099784410903238 0.000123984670672 -0.070963335366632 -10.022583892729372 -0.000000467019261 -0.087672719756087 -9.967472053789816 0.00036962768188 0.039552934439611 -10.129389456754724 0.000451273644068 0.20998591830462 -9.975948606476488 0.005735806472759 -0.009671123819744 -9.954759675015532 0.005537168524696 0.031890857517167 -10.045365062090765 -0.000017889177259 -0.056276708502057 -9.999926880044384 -0.000091202465623 -0.046318487891821 -10.130929292582866 -0.00006536148335 -0.016970228789205 -10.119133493188087 -0.000048012314066 -0.179688891754063 -10.061425601590159 -0.000220592721392 -0.106414137068158 -10.013207370153186 -0.000068916841638 0.104243247590243 -9.933228588112202 0.000081545808749 0.010974192325557 -10.127316982260801 -0.000050170241413 -0.167698055617245 -9.860635796688904 -0.000182623761594 0.096495008983799 -9.864277958723523 0.000104653661811 0.098252823267144 -10.22716153314507 0.000024491857892 0.12469375421888 -9.96997412378138 0.000157917174034 0.124558200770546 -10.055931124920834 0.00011075578631 -0.023667432794935 -10.07844641954091 -0.000105753543052 0.122046778667036 -10.043961685526517 0.000094661874834 0.002537470685492 -9.995518082619411 -0.000062240800223 0.028248737067445 -9.97186638409628 0.000118718918825 0.139518055036634 -9.911071731119648 0.000132513259834 0.03018381707801 -9.770831124854393 0.000012734576496 0.008326761706652 -9.732413360904934 0.000063973603165 0.144339791482134 -9.942085384452476 0.000160178240147 -0.065257607437774 -9.938488328721554 -0.00012204397932 0.070399054773718 -9.952911944093 0.000095038041058 -0.10267948920217 -9.948843799912876 -0.000145052603549 -0.031599219794867 -10.064797949051188 -0.000003705703336 -0.015600457613447 -10.176276537714896 -0.00015645751067 -0.090799010022454 -10.057760458956118 -0.000292231386182 0.014998372663278 -9.975065749226422 -0.000370217116486 -0.153552738486831 -9.980415009217063 -0.000479530149538 -0.075969323888031 -10.041094124707984 0.000049420632422 0.083809113860329 -9.804961538939557 0.000098842162846 0.047517798072557 -10.033318592762688 0.000035771655053 0.146774556497623 -9.889320803512248 0.000094728721559 0.043910095768742 -9.959197380956875 0.00010040971248 0.134475454203302 -9.828126076226237 0.000125477473381 0.07244983482198 -9.926260937859308 0.000102275495415 -0.020578020898594 -10.039821447255811 -0.000038849943909 -0.10941197944489 -10.046798942706394 -0.000123428693656 -0.097609040671565 -10.203113229845432 -0.000090784165121 0.027798852541338 -10.075072672871933 0.000000607212282 -0.038456319332265 -9.921764735190973 -0.000122724235481 0.023344714819977 -10.086583197318321 0.000001525594803 0.075282101387082 -9.940503155876192 -0.00000890517149 -0.126699232707016 -10.16475506219188 -0.000127294592367 -0.069894686481674 -10.146969764123055 -0.00003027483645 0.015604713597005 -10.067690440582334 -0.000031579934427 0.089449436876157 -10.018174877334651 0.000153464716366 0.07622427154225 -9.967437090951718 0.000025525360646 -0.247918053605612 -10.17468806411533 -0.000153976671434 -0.073322213525357 -10.095636417322183 -0.000048645422917 -0.152422004363101 -9.956953512335931 -0.000005191637131 -0.038291725956496 -10.072801819925127 -0.000043450151737 0.166024830455346 -10.013935851469096 0.000200378146658 -0.00631459877728 -10.135501447709686 0.000084646615339 -0.058103614422324 -10.091353252434962 0.000089395926579 -0.06069678012677 -9.906691450807116 0.000164692332254 0.107517129571676 -9.885267928985581 0.00042026130171 0.043926437382455 -9.782607113915207 0.000476122621724 -0.01335756817134 -9.875466186924385 -0.000047633316025 0.059620522482329 -9.96743217517661 0.000105673850497 -0.03935543948193 -10.124663707753676 -0.000025039191417 0.025912580571966 -10.025123689479846 0.000045057165927 0.117892303167663 -10.11611964137415 0.000140241619044 -0.211088143033212 -9.956624078018871 -0.000152593637416 -0.064585436274797 -9.793925234396207 -0.000066481379296 0.177952422581761 -10.032425911695119 0.000123844913694 0.001540639922584 -10.016161467892406 0.000037724574231 -0.061238441133932 -10.079516751033008 -0.000048708538956 0.183357651438308 -10.052795887436661 0.0001314858033 -0.121748823529898 -9.934466288058912 -0.000130654825639 -0.118355167654935 -10.063114049724025 -0.000131648280244 0.052770569261002 -10.265976126318293 0.000046384465555 -0.01466197555727 -10.042179707481935 -0.000107384829363 0.017945742761016 -10.179893827497986 0.000017128057207 -0.109637902118763 -10.046550923379975 -0.000103632164906 -0.0195682806523 -9.891770890350797 -0.000010700430124 0.06697324234737 -9.898789070041451 -0.000029449293222 -0.032014517656646 -10.09760692064582 -0.000008175527746 -0.016959428823669 -10.087775881341479 -0.000107189915977 0.008812860163514 -9.961901551077382 0.000004626286789 -0.045607260808293 -9.959265263590934 -0.000049267379757 -0.161341019211493 -10.088963396575609 -0.000480882989182 -0.240710877739223 -9.827080596731873 -0.000639244982775 -0.056800349606118 -10.020149054383012 -0.005603927321234 -0.067083650960514 -10.040660810928056 -0.005643047218798 0.103897227291242 -9.960316470929246 -0.025049207373574 -0.103588635610669 -9.991049815110301 -0.02509925334437 -0.23276568588292 -10.100596690161529 -0.000213317220631 0.03457019413145 -9.888721620937588 -0.000031373853577 0.029277956879086 -10.138422127238025 -0.00003436191319 0.104277725397963 -9.940108965808365 0.000014938890619 -0.050564616533965 -10.231640333440028 -0.000085906441715 -0.019552248742056 -9.941898870122033 -0.00006483318952 0.000288698980765 -10.022763311008358 -0.00007742374603 -0.08763565464658 -10.058845741098798 -0.000085594230154 0.074135945924198 -10.136122902382702 0.000064568040909 0.131257056695437 -10.085318160577071 0.000126297218647 0.067468826905949 -10.039451210601037 0.000010917860916 0.057804497672354 -9.813799948340803 0.000050506170803 0.044405994231907 -9.98797243751231 -0.000002432873409 0.19563953925502 -10.091568689533144 0.000191665756831 -0.020514941738779 -9.93788920040018 -0.000046781831228 -0.046609329897956 -10.027238864594334 0.000036036374549 0.09163470036822 -10.060922582527486 0.000052625728427 -0.080881552415701 -9.941841463652937 -0.000026701995908 0.033273804846107 -9.935720081446751 -0.000004026426933 -0.108780472665197 -9.953188982742514 0.000060024990561 0.038317204472957 -9.919972856614994 0.000022849832061 -0.17281180774718 -9.964052051381172 -0.000059087953242 -0.031893938629447 -9.968010909025901 -0.000025772890641 -0.025480651983756 -10.038227169881912 0.000304125954007 -0.014204987209915 -9.888378272270945 0.000468255975366 0.228035197648846 -10.19609345432961 0.005799456239331 -0.006378962696164 -9.941295978072542 0.005635379846351 -0.021121939474404 -10.062259823286091 0.025058244873057 -0.104547504343935 -10.053909792178352 0.025042349374293 0.07049249684388 -9.979834630168789 0.000065411732139 -0.154322765840336 -9.86648448030232 -0.000144515654361 0.033726362653815 -10.228248503692948 0.000045850103107 0.001854510329697 -9.807099529556936 0.000020418351916 0.093183025693076 -9.853756091046398 0.000054060089715 0.004929181245185 -9.903745009009031 0.000025055374138 -0.113640159140154 -9.923587234989665 -0.000172060008194 0.175664109861723 -10.027560674572605 0.000067499845913 0.050413929457363 -10.055780519667866 -0.000004671648337 -0.123956802561397 -10.115761728638276 -0.000112072780125 0.048132552581077 -10.109908157267123 -0.000049811625037 -0.106514225142133 -10.025351628360157 -0.000070219219619 -0.128616270373297 -10.051113869680796 -0.000092819036777 0.033337204459043 -10.04541450349909 0.000071359301072 0.166744548129689 -9.979953264188444 0.000154892335401 0.015412386968104 -10.161425076938214 0.000053343281773 -0.151331253858601 -9.977471544439382 -0.000098578497839 -0.146654237401929 -10.046717062707694 -0.000108146492857 0.170293194713735 -10.017185490463833 0.000053367279645 -0.089249832637414 -10.009150546548589 -0.000048802545613 0.080153601770548 -10.132850604560719 -0.000017254895548 -0.090098445162545 -10.068361393607283 -0.000223638950112 -0.221254449482543 -10.175929700131356 -0.000363525882257 -0.168605107122136 -9.933366571662457 -0.000599234970759 0.106135865879056 -9.993344288790855 -0.00040069767132 0.010742253569352 -10.004991597595641 -0.005772476178814 0.120346902053723 -10.034955295033475 -0.005621667374725 0.017733127004091 -10.196800256473068 0.000049875382002 0.076198613896568 -9.871837095304576 0.000052617162792 0.111371011072775 -9.992124423118577 0.000032156151144 0.018505682793463 -10.085003553599213 0.000070544577724 0.033503821665356 -10.012616791661797 0.000027292136839 0.009172162214817 -10.054579001469188 0.000008987441215 0.148454591591496 -9.991633265208211 0.000105635401984 0.076427087305048 -10.014420404551489 0.000065077152406 0.035918656733866 -10.044727439637786 -0.000002254828345 0.076428455360939 -10.09626917379169 -0.00002360682899 0.133118535745804 -10.013264158240782 0.000129750125754 0.011471108592328 -9.858426386208931 0.000045639901828 0.048238039933726 -10.172385577316552 0.000040455805726 -0.061152761946018 -10.070582203847755 -0.000083956458471 0.146287934954794 -9.927845584063224 0.000189875152648 -0.106171522649658 -9.93544796906645 -0.000079315648248 0.094346386362845 -9.904167291849731 0.000058447105589 -0.136080244413484 -9.900407846927408 -0.000094654121542 0.036586300348338 -9.9540238543668