<?xml version="1.0" encoding="UTF-8" standalone="no" ?>
<VTKFile byte_order="LittleEndian" type="UnstructuredGrid" version="0.1">

  <UnstructuredGrid>
    <Piece NumberOfCells="0" NumberOfPoints="801">
      <PointData>
        <DataArray Name="mass" NumberOfComponents="1" format="ascii" type="Float32">1 1 1 1 1 1 1 1 1 1 1 1 1 1 1 1 1 1 1 1 1 1 1 1 1 1 1 1 1 1 1 1 1 1 1 1 1 1 1 1 1 1 1 1 1 1 1 1 1 1 1 1 1 1 1 1 1 1 1 1 1 1 1 1 1 1 1 1 1 1 1 1 1 1 1 1 1 1 1 1 1 1 1 1 1 1 1 1 1 1 1 1 1 1 1 1 1 1 1 1 1 1 1 1 1 1 1 1 1 1 1 1 1 1 1 1 1 1 1 1 1 1 1 1 1 1 1 1 1 1 1 1 1 1 1 1 1 1 1 1 1 1 1 1 1 1 1 1 1 1 1 1 1 1 1 1 1 1 1 1 1 1 1 1 1 1 1 1 1 1 1 1 1 1 1 1 1 1 1 1 1 1 1 1 1 1 1 1 1 1 1 1 1 1 1 1 1 1 1 1 1 1 1 1 1 1 1 1 1 1 1 1 1 1 1 1 1 1 1 1 1 1 1 1 1 1 1 1 1 1 1 1 1 1 1 1 1 1 1 1 1 1 1 1 1 1 1 1 1 1 1 1 1 1 1 1 1 1 1 1 1 1 1 1 1 1 1 1 1 1 1 1 1 1 1 1 1 1 1 1 1 1 1 1 1 1 1 1 1 1 1 1 1 1 1 1 1 1 1 1 1 1 1 1 1 1 1 1 1 1 1 1 1 1 1 1 1 1 1 1 1 1 1 1 1 1 1 1 1 1 1 1 1 1 1 1 1 1 1 1 1 1 1 1 1 1 1 1 1 1 1 1 1 1 1 1 1 1 1 1 1 1 1 1 1 1 1 1 1 1 1 1 1 1 1 1 1 1 1 1 1 1 1 1 1 1 1 1 1 1 1 1 1 1 1 1 1 1 1 1 1 1 1 1 1 1 1 1 1 1 1 1 1 1 1 1 1 1 1 1 1 1 1 1 1 1 1 1 1 1 1 1 1 1 1 1 1 1 1 1 1 1 1 1 1 1 1 1 1 1 1 1 1 1 1 1 1 1 1 1 1 1 1 1 1 1 1 1 1 1 1 1 1 1 1 1 1 1 1 1 1 1 1 1 1 1 1 1 1 1 1 1 1 1 1 1 1 1 1 1 1 1 1 1 1 1 1 1 1 1 1 1 1 1 1 1 1 1 1 1 1 1 1 1 1 1 1 1 1 1 1 1 1 1 1 1 1 1 1 1 1 1 1 1 1 1 1 1 1 1 1 1 1 1 1 1 1 1 1 1 1 1 1 1 1 1 1 1 1 1 1 1 1 1 1 1 1 1 1 1 1 1 1 1 1 1 1 1 1 1 1 1 1 1 1 1 1 1 1 1 1 1 1 1 1 1 1 1 1 1 1 1 1 1 1 1 1 1 1 1 1 1 1 1 1 1 1 1 1 1 1 1 1 1 1 1 1 1 1 1 1 1 1 1 1 1 1 1 1 1 1 1 1 1 1 1 1 1 1 1 1 1 1 1 1 1 1 1 1 1 1 1 1 1 1 1 1 1 1 1 1 1 1 1 1 1 1 1 1 1 1 1 1 1 1 1 1 1 1 1 1 1 1 1 1 1 1 1 1 1 1 1 1 1 1 1 1 1 1 1 1 1 1 1 1 1 1 1 1 1 1 1 1 1 1 1 1 1 1 1 1 1 1 1 1 1 1 1 1 1 1 1 1 1 1 1 1 1 1 1 1 1 1 1 1 1 1 1 1 1 1 1 1 1 1 1 1 1 1 1 1 1 1 1 1 1 1 1 1 1 1 1 1 1 1 1 1 1 1 1 1</DataArray>
        <DataArray Name="velocity" NumberOfComponents="3" format="ascii" type="Float32">0.111274273310631 -10.032523716010596 0.000070727741329 0.060810600290045 -9.936894201086426 0.000014815405794 -0.071217126327751 -9.884404314396736 -0.00001984498702 -0.171925797910436 -9.958209336759975 -0.000050605060916 -0.040078756037025 -9.773536442812595 -0.000102003218634 -0.227282578690998 -9.977266026799862 -0.000162016930101 0.08665322950597 -9.861420931179785 0.00003315685833 -0.103291821781373 -9.969729225071132 -0.000056641858247 -0.035877416050781 -9.968341260185106 -0.00008536296005 -0.111427508325561 -10.032624068162185 -0.000070061535311 0.004666717973445 -9.87702183962768 -0.000112779829782 0.084509906124292 -10.150434548965361 0.000040818036341 0.222480689519929 -9.959598841468425 0.000097877603897 -0.000655170191342 -9.95345389495372 -0.00001727113647 -0.075025001045709 -9.902476982880968 -0.000062694580604 0.015421847456386 -9.847224570316367 -0.000004674080181 -0.0228054269038 -9.911821781210129 -0.000012544795453 -0.132904866084789 -10.087293938402652 -0.000092822886983 0.005384963525768 -10.084459429309875 -0.000041773904358 -0.106203625821615 -9.945886387224252 -0.000003080399473 0.078712339476516 -10.030464981615209 0.000032246570002 -0.006926607614194 -10.069184199812502 0.000043815437132 -0.170580881491353 -9.96994451261415 -0.000122262873986 -0.064116382707335 -9.869558209920287 -0.000017815173047 0.01560640146386 -9.79422866412181 0.000062052570725 0.003854867907094 -10.054634837888678 -0.00000175647504 -0.010594973301565 -9.92517225893425 -0.000064702424457 0.031941031190814 -9.990351214688271 0.000026156108947 -0.089187396929654 -9.898269307215264 -0.000107697894248 0.131775960386532 -10.150680621013436 0.000086132275187 0.050587254701702 -10.073791680310702 0.000039650003154 -0.015984862667689 -9.900612438485137 -0.000072116720058 0.097449272712159 -10.047542419117855 0.000068967436666 -0.024285541516955 -9.964479780821614 -0.000064692924504 -0.107442894200314 -9.86785054229482 -0.00006145386331 0.052895061742928 -9.988997522333978 0.000007274258539 0.039752389102317 -9.908861409206242 0.000078239843731 -0.011130347320103 -9.922777558495936 -0.000036691750909 -0.039475040903668 -9.880090166164189 0.000007489532497 0.026479815460807 -9.942050420904263 0.00003757702507 -0.009240037739895 -10.147576510086086 -0.000008798404294 0.19416722621798 -10.092194218400007 0.000138128827845 0.079941828656555 -10.146403627987837 -0.000002471912142 0.101141526625386 -10.068245872162969 -0.000006434604747 -0.029025220537996 -10.150450855261528 -0.000037666705684 -0.083423436152354 -10.058007410389848 -0.00002821742208 0.141782761148176 -10.208323579495403 0.000056032037609 -0.002775169894356 -9.842140510623862 0.000059803594239 0.153874998975384 -10.098327146315935 0.000105537007177 0.133961945655668 -10.069192010466507 0.000118899051941 -0.076365469943489 -10.098139947020348 -0.000012935807412 0.049398538581363 -10.147365973593876 0.000010341194772 -0.070445884605283 -9.9541634689388 -0.000077280990228 -0.035049138955159 -9.974117008785386 0.000013925321873 -0.069406522188527 -9.950306887622434 -0.000038366576199 -0.066220518207218 -9.996023274952929 -0.000021347422698 -0.067266298880599 -10.053013859615584 -0.000063181399116 0.083449752402381 -9.934345266177033 0.000082345923603 0.007569161113486 -9.983713136544136 -0.000015957299922 0.068826414436837 -9.867494224022069 0.000085153141908 0.003893087549395 -10.095881631878422 -0.000054419612442 -0.015954729199283 -9.85373965675875 -0.000080850789447 0.043817530126483 -9.850948116354985 -0.000010678318599 0.035930799077695 -10.118475811149874 0.000022284317235 -0.111982773777152 -10.035286701557501 -0.00005465518415 -0.205480688220937 -9.926162017482156 -0.000064471861643 0.223170481083417 -10.130011480109804 0.00016448596549 0.029805247655033 -10.061147315232883 0.00006924530532 0.01925334527122 -9.842097299326243 -0.000024293944595 0.02041323425957 -9.902064769763772 0.000047050524684 0.135472545814655 -9.929426166902751 0.000129341816421 0.006996396595416 -9.992851247082479 0.000032668435147 0.209587352555798 -10.003811689560296 0.000173366929024 -0.034898645691294 -9.967299435346593 -0.000014298395584 0.074676847033209 -10.124550787011048 0.000012496560093 0.061633175621418 -10.127423451548754 0.000041746140027 0.115441193084287 -10.104495479174378 0.000083369320002 -0.072247283812658 -10.111936809471173 -0.000068091570201 -0.064476664797508 -9.980626676292083 -0.000046890310071 -0.119346778781179 -9.936409782203018 -0.000086966934143 0.001081375851754 -9.952727861377154 -0.00001942525138 -0.175137835388517 -9.961462410373606 -0.000134889975067 0.033792735339153 -10.058376178728187 -0.000030688928973 -0.075470108238796 -9.758022919586349 -0.000015027401885 0.066576107387101 -10.006809511810797 0.000060138370296 -0.043717258852283 -9.907143407478054 -0.000024240620594 -0.169008033614625 -9.894505888739143 -0.000102544346581 0.062360644897537 -10.050296538226201 0.00003318277612 0.203347110020479 -10.018784270129936 0.000163919184537 -0.017836248292646 -10.195355565528159 0.00002240148516 0.05776405282706 -10.078885320158909 0.000079788768261 0.011621511060234 -10.059528597731981 0.000014012156729 -0.074084696698681 -9.818798675183768 -0.000061813808082 0.141466712297994 -9.889484557016711 0.000101076901027 -0.052079764599735 -10.105401315907701 -0.000110360210229 0.136250781843198 -9.843539619914404 0.000110896108908 0.119376927348613 -10.088021192096114 0.000035616125182 0.064948074180584 -10.078935978255322 -0.000001901075629 0.0531196383616 -9.978455894306999 0.000022047763073 0.079550661544481 -10.124204084588682 0.000056241783098 0.006789159489084 -10.085729181093349 -0.000055218696975 -0.035935842009933 -9.945591065872565 -0.000076487984381 0.027931434769821 -10.059211857188435 0.000012953417991 -0.082648611321887 -10.029493698914775 -0.000113078009573 0.151530026558551 -9.819897891601494 0.000065508351155 0.09753724649574 -10.122721977555523 0.000048851320954 0.0957125998947 -10.07113735889428 0.000070535764293 -0.056604443501023 -10.102601472337117 -0.000033123284481 0.098401389587602 -10.049801334446325 0.000060914795504 -0.131810538311276 -10.026923101858584 -0.000096287837551 0.102596380571552 -9.923514202361471 0.000061157557809 -0.074004701788217 -9.964778171900802 -0.000050973851984 -0.056129706927237 -9.868795252826985 0.000008893013368 0.039884577690704 -10.031405764220903 -0.000009901360753 0.14231456884899 -9.973904817952048 0.000175120222647 -0.028172022709825 -9.945240916304696 0.000017406252155 -0.006645029165401 -9.730099588766651 0.000052297842911 -0.075830424772005 -10.048516974223137 -0.000035808952504 0.112400795201474 -10.00209015229091 0.000092193447369 -0.012323102311922 -9.882984550161385 0.000010197361168 -0.003598377257137 -10.189213892168217 0.000003892249176 -0.095611213692421 -9.940082469215604 -0.000053674795959 0.042480475651917 -10.082915382604607 0.000015712624203 0.250500599936634 -10.003206259905919 0.000133811299162 0.07618543995887 -9.951548140468635 0.000010565826446 -0.060930948993493 -10.051642051050449 -0.00005800333443 -0.000441066712169 -10.102903403154466 -0.000037035562495 -0.094111509383618 -10.035961849309473 -0.000035901645959 -0.019949666983188 -9.952206050867957 -0.00003701767583 0.076526270137346 -9.97950088140084 0.000040253542315 0.040162295050172 -9.960993224648817 0.000026855643901 -0.005002174429547 -10.20807668140448 0.000011699637285 -0.108871352633186 -9.83860964104638 -0.000176851662388 0.065731264604252 -10.145914312894229 0.000075318918401 -0.078889230965188 -9.970101121042926 -0.00014735115535 -0.089705231762564 -10.137608825884804 -0.000024635249314 -0.026755740584835 -10.064765212844115 -0.000063741150019 -0.011760433829556 -9.931077635149769 -0.000029742570908 0.056058677300983 -10.156318237896382 0.000006927628073 0.07270913457037 -9.881347758358116 0.000107749518556 -0.004509930126778 -10.123181577652522 -0.000015664332268 0.088272341660019 -9.972198458946242 0.000124047848552 0.008836394755032 -10.145009603607548 -0.000029431002788 0.159334184154193 -10.201294537823141 0.000166571119705 0.115419309518067 -10.03684156638001 0.000055354408891 -0.114635933824938 -10.077840104562817 -0.000047126126882 0.135193804281628 -9.920386000445987 0.00005583538853 0.070020490311202 -9.933693857007116 0.000057477553886 -0.034629929729932 -10.062913842566969 -0.000022963630577 0.067948662339552 -9.95965434921793 0.000042344444847 -0.062023516043036 -10.007081049929413 -0.000107157782288 -0.146912401178915 -10.016814083401986 -0.0000585599905 -0.08170563934067 -10.018937575441711 -0.000060559517095 -0.129440590504064 -9.912964669750655 -0.000081583672183 0.025451155031975 -10.015640308628129 0.000023137031823 -0.02242988445064 -9.85390152693523 -0.000048689915148 0.183252402160741 -10.051962119733501 0.00010620663709 -0.096468384732131 -9.977839828931449 -0.000116556694902 0.249673039502351 -9.906530611361843 0.0001437316006 0.118564135557782 -10.170342883110315 0.00002660973403 -0.03355597281647 -9.933307161395351 -0.000075112669022 -0.009105025663498 -10.126341949134682 -0.00002234151815 0.237761982926273 -9.944101106590276 0.000147317349921 0.169295840849304 -9.867532488590916 0.000100218970407 -0.05110911734604 -9.937790442909899 -0.000088379851182 -0.010221763029777 -10.150018755986549 0.000048250051884 0.084862029075092 -10.052070694201149 0.00003686478362 -0.032579108554844 -9.916608417991769 -0.00004123064685 -0.052780380876699 -9.894996163538259 -0.000147211898924 0.009127019768954 -10.02459901989306 0.000011928378309 -0.072493590762632 -9.91824023851883 -0.000142410156436 0.040457188058706 -9.893742232520989 0.000070329626213 -0.070809691896949 -10.100327306777556 -0.000083589965036 -0.1243027469006 -9.953044117164266 -0.000103576811793 -0.072256152216664 -9.969347519558985 -0.000035251965328 0.091463832309396 -9.930190838352846 0.000047195605209 -0.128920551428871 -10.042061063575819 -0.000067732188593 -0.182375193659013 -10.064586790491237 -0.000080534990107 -0.134986461898044 -10.057072213600623 -0.000129645224531 0.01148653844923 -10.120074670241719 0.000052690674658 0.003356366578796 -10.029852782427142 -0.000101652072941 -0.149005440314399 -10.143881104806209 -0.000149780521795 -0.088700639646443 -9.898246892658912 -0.000156016394419 -0.128401724361725 -9.916645088259788 -0.000261458838017 0.009920627038482 -9.933142942970916 -0.000212428039047 0.058442435089816 -9.887860473497494 -0.000235633496812 0.112828166677394 -10.103275520018022 0.000067767591352 0.011645068189321 -9.883757554579653 0.000056678646818 0.127282179953602 -9.849004046382541 0.000092148588634 0.04637580940245 -10.243218384260375 0.000015580588641 -0.086590616889168 -9.863409479083709 -0.000092393883776 0.102818956939586 -9.942033118822621 0.000073479856014 -0.042286750611804 -9.980747081207188 -0.000037043377899 -0.11865845386721 -9.955938877289142 -0.000085865488007 0.175843048624711 -9.94056287746859 0.000175810302035 -0.088168170230498 -10.106184531665285 -0.000082891971836 0.039786612287119 -9.908847748397939 0.000043097961873 -0.104340257372726 -10.052999759900114 -0.00004750508907 0.03503268808486 -9.921280276970984 0.000009963908948 0.108243585751454 -10.130129756031648 0.000059479972301 0.012695902285289 -10.009163535132277 -0.00000931923323 -0.122923766271145 -9.998588679339823 -0.000133214018754 0.095576713133086 -9.949764817781942 0.000058528252987 -0.080007287379596 -9.846113514594046 -0.000062869634167 0.107959143304275 -9.985362122358124 0.000090120514805 0.010516989130611 -9.977671086934842 -0.00002150332838 0.008691887609128 -9.927527095746889 -0.000004163537355 -0.03170444551307 -9.70668606005801 0.00001880436693 0.124376993344383 -9.962383004379525 0.000057462247297 0.046334472732644 -10.015013126315191 0.000084895285923 0.099646072082953 -9.975728619973983 0.000099840580079 0.068536093099705 -9.873342082730556 0.0000986755631 0.063281221830952 -9.933692122635209 0.000093566242121 -0.148300345843728 -9.939359306728392 0.000082368630669 -0.011047086690378 -10.118563341034644 0.0001227857415 0.031727959191004 -9.975501542686812 0.000280778049256 0.082961920652037 -9.950264397108409 0.00028195175465 -0.13822012759373 -9.825604500512444 -0.000135281146608 0.113550856904479 -9.831041315769523 -0.000015528794853 0.012859061040427 -10.113559220156814 0.000045260490883 0.007703017823256 -10.043702987972434 -0.000081551124177 0.189823309591539 -9.984094141647432 0.000076619759246 0.127447991927043 -9.995208661119687 0.000060656765799 -0.101040871801165 -10.002841262357478 -0.000131470386966 0.001409877143174 -10.063298552804097 -0.000071598403412 0.118910631697526 -10.043149997113895 0.000032039198108 0.209843966020143 -10.072721774669102 0.000155791993964 -0.108353315749834 -10.025332240211503 -0.000084195896371 -0.147567468164725 -10.055210786490244 -0.00012309271025 0.030494505803004 -9.872767043155271 0.000025414094979 0.214471640436365 -10.135422948731177 0.000095991419962 -0.000859075052767 -9.981204606604368 -0.000013883160695 0.170443316275054 -9.884675775807501 0.000102153392422 -0.068602347167617 -10.068217445712934 -0.000038596729234 0.020455415735559 -9.932756160634206 0.000032049584576 0.168983174364062 -10.026315307653103 0.000129353293312 -0.020098434396918 -9.886118666296264 0.000038439099164 0.033452955437769 -9.978277266825993 0.000029669594703 -0.202704425501808 -9.955163489841054 -0.000141885498428 -0.151002408453015 -10.011794592973112 -0.000035607269236 0.063982206518386 -10.004021579823199 0.000012446655262 -0.132981263473013 -10.017445719167792 -0.000094488940426 0.073184238589027 -9.933214264309211 -0.000267701895649 0.040996624140581 -10.021885078871705 -0.000313156717946 -0.173021346132713 -10.106087109896194 -0.004940298103435 0.195776816887659 -9.815436038003588 -0.004743718362292 0.024895965448848 -10.133345386777435 -0.022111543558361 -0.057106815321452 -10.204140404713216 -0.022159605525618 0.023884826544363 -9.936988450228679 0.000006071511667 -0.130539980358923 -9.951286603836193 -0.000062595582966 -0.050621247255205 -10.117202046071501 -0.000072016455414 0.174016969531264 -9.891276763789183 0.000107706060274 0.167648978276419 -9.912234086691884 0.000164809607429 -0.067491770017207 -9.988848498344828 -0.000088490935591 0.038269205335933 -10.151612113464639 0.000061866967691 0.051978441578067 -9.862330647067914 0.000044337106485 -0.12691328234808 -10.020848742267104 -0.000119604108214 -0.005980874048915 -9.856689736996691 0.000060439734703 0.009640392040755 -9.968601673029269 -0.00000752769959 -0.080057018821121 -10.045944646840148 -0.000054699465288 0.086655198665042 -10.031031050872143 0.000033279233087 0.042304171759084 -9.974319995370253 0.000003030338479 -0.018792895863024 -10.173192571214829 -0.000037599527284 0.09652125559549 -9.968271875240186 0.000075825949323 0.019629870508114 -9.96426573686454 -0.000007147695353 -0.084755161279717 -10.058117230535363 -0.000018835125151 -0.050462637350936 -10.044219408410076 -0.00009003255853 0.043810517435983 -10.109484558049971 0.000027647039175 -0.04532155660632 -10.033390084565905 -0.000019059336774 -0.05407004606067 -9.79376207625214 0.000013782706464 0.017632789018602 -10.066930153119493 -0.000034894788962 -0.248782360631009 -10.006497899941539 -0.00012578635415 -0.053661077240782 -10.173620757306169 -0.000016253535581 -0.017835810820003 -9.972424337431079 0.000345653139696 0.028652372505477 -10.130010446057664 0.000338910567279 -0.044143769950444 -10.016499006966518 0.004856257580931 0.077028276638309 -9.933635212515444 0.004938509704043 -0.031747988402323 -10.011967006167051 0.022107186499845 -0.087134825692089 -9.926295325520195 0.022082199436542 0.121140460020883 -10.102865787588668 0.000117589899788 0.080251600080426 -9.97050003249886 0.000039518423362 -0.014433977305765 -10.040350828856122 0.000008994234985 0.061032914829418 -9.93171567866686 0.000034816496907 0.116061469307125 -9.896460905529997 0.000084707207077 0.061759540679339 -10.027961510696882 0.000035414938215 0.10313771295793 -10.080809716424824 0.000083089965248 0.05105306294098 -10.051183187108112 0.000008674454307 0.012172884136706 -10.059842584143651 0.000009120968687 -0.03943656914062 -10.056822881444218 -0.000114393602385 0.012708050320694 -10.063501287758019 -0.000009142175059 -0.021350370227985 -10.165899130880719 -0.000023401239699 0.031259902389529 -10.115554277793807 -0.000017694428088 0.254108478446213 -10.071924819398358 0.000129640407302 0.081347637256657 -9.752202437091569 0.000032637982718 0.074098311220813 -10.08819896686734 -0.000007267684629 -0.136227232893508 -9.922251214882042 -0.000085207951067 0.002718214989522 -10.035049423882617 -0.000058924820419 0.056076285402087 -10.020158639586565 -0.000022274621391 -0.144842227844482 -9.988444261543583 -0.000097814326176 -0.083607092466286 -10.16152719264579 -0.000121727316548 0.136838374624611 -9.892268205626522 0.000161419418679 -0.041092961459324 -10.165419975027016 -0.000023335499176 0.123815647359222 -10.098996252636766 0.000069955681763 -0.075526982748113 -9.933306204126756 -0.00005591268658 -0.112932052967072 -9.920109026871447 -0.000453773544373 0.106848783821571 -9.964141275859381 -0.000275922928651 -0.127949507226626 -9.894301304558411 -0.004977142216819 0.004317215165515 -9.871365371496058 -0.004899338604495 -0.085844382111204 -10.082187660640372 -0.000042107770034 -0.079435200938453 -9.996972392350655 -0.000049830487355 0.088090400467801 -9.976911795161115 0.000053469820402 0.012661846314575 -9.870402794391818 -0.000075557113611 -0.138863770552632 -10.121491052084293 -0.000162458367822 -0.019906621841927 -9.999418239609573 -0.000054538275805 -0.102932226557537 -9.899880174433473 -0.000100548235613 0.133503375735536 -9.997036842118902 0.00006581330664 -0.006239799246426 -10.079563774505589 0.000064500746367 -0.138374261281679 -10.006552027045146 -0.000053827045834 -0.026959908951869 -10.017019595111567 -0.000021928845015 0.152232948811193 -9.919972608941784 0.000152969562599 0.012363084998255 -10.009916346378755 -0.000020026733902 -0.015164174933109 -9.839940805208967 -0.000049028208767 0.052704109168185 -9.844171567087981 0.000070559881755 0.015692589908114 -9.972681359946582 0.00000021502302 -0.015310257921911 -9.988695279718641 -0.000017435009268 -0.079833937023713 -10.091000963454428 -0.00004345357207 0.094880858636889 -10.083123449353794 0.000062967567274 0.021812387115214 -10.035727004750635 0.000073037298515 -0.106070717535211 -9.874944523683563 -0.000036737890822 -0.150266356194353 -10.224131659735637 -0.000025708882575 0.114868784098446 -10.128170287306762 0.00009959101421 0.027091912023956 -10.099753002044729 0.000102059199663 -0.070960501868096 -10.022121877160727 0.000005190014069 -0.087715456679921 -9.966585693445882 0.000330683063204 0.039498718164197 -10.130613720712986 0.000394250911976 0.209304726662553 -9.974663797773403 0.005043392539134 -0.010321908096305 -9.955664445610333 0.004888754385945 0.031894620877712 -10.045275672686468 -0.000013938621983 -0.056263658233477 -9.999541348893249 -0.00007100322243 -0.046307854857998 -10.131282900615714 -0.000050916241235 -0.016962563347147 -10.119665981254615 -0.000037398321919 -0.179655597722534 -10.061558156644928 -0.000171734044578 -0.106404149126271 -10.012683807018654 -0.000053673278833 0.10422896597657 -9.933112847599276 0.000063464448215 0.01098160304813 -10.128186730658301 -0.0000390868875 -0.167671076377479 -9.859638311688734 -0.000142217104709 0.096480274565297 -9.863431368489932 0.000081419638482 0.098251289157682 -10.228394515607119 0.00001903735153 0.124668411081653 -9.969976480191203 0.000122872781307 0.124542479477171 -10.055536303435918 0.00008614790807 -0.023651899690897 -10.078881994564492 -0.000082387744349 0.122033335180025 -10.044109714294898 0.000073580961164 0.002547734191058 -9.995507191175756 -0.00004863211052 0.028228118792051 -9.972178745813149 0.00009227274628 0.139498727761307 -9.911294549095901 0.000102832883637 0.030180986242425 -9.769969803276846 0.000009581067144 0.008314982615227 -9.731511736813511 0.000049056716137 0.144315289581142 -9.942460070772674 0.000123936953137 -0.065238888258061 -9.938957769570679 -0.000097183541208 0.070384316576384 -9.952682329308868 0.00007180138325 -0.102659898791878 -9.948248358544033 -0.000120031658431 -0.031600923296883 -10.065136231770953 -0.000010022237171 -0.015585035763514 -10.176627548819587 -0.000143257003399 -0.090760780377556 -10.058566636730555 -0.000248949174801 0.015041054337635 -9.972651810990593 -0.000329244668375 -0.153494294377426 -9.982193808371564 -0.000414338205151 -0.075979764872624 -10.041650118237571 0.000038498938771 0.083794911374464 -9.804227025025591 0.000076969252372 0.047512584140667 -10.033465327680011 0.000027865576824 0.146761161320185 -9.889673158726442 0.000073757172857 0.043894902754405 -9.95909517916019 0.000078171755734 0.134455940021767 -9.827482165530004 0.000097707480515 0.072434760863953 -9.925914904877578 0.000079630356894 -0.020571411332475 -10.039932734287248 -0.000030227433377 -0.109393346166772 -10.047008465523863 -0.000096057245187 -0.09759664168064 -10.204131308476573 -0.000070621229369 0.027799292334087 -10.075111996961651 0.000000508647392 -0.0384362887813 -9.921087150482423 -0.000095490707471 0.023344692637167 -10.086427511910093 0.000001244644953 0.075284023036115 -9.940062214368654 -0.00000684757196 -0.126680603529151 -10.165165773809511 -0.000099004160935 -0.069891208172326 -10.147754871285612 -0.000023390747089 0.015610488274565 -10.067697728845188 -0.000024429572147 0.089425078381116 -10.017495895260659 0.000119798464767 0.076221596666972 -9.966908419340951 0.000020201013456 -0.247894774814947 -10.175557094392127 -0.000119111174741 -0.073315285287524 -10.096000663928816 -0.000037097989609 -0.152420802346685 -9.956305434386532 -0.000001855003618 -0.03828355767219 -10.072605003029196 -0.000031658695181 0.165998747569381 -10.013829834235546 0.00016311567663 -0.006325416063657 -10.136249649509594 0.000073016539437 -0.058109081558415 -10.091356842096651 0.000091068318353 -0.060714668853623 -9.907085155527728 0.000149675822205 0.107467260253832 -9.882838560039742 0.000368213481466 0.043867051390834 -9.784272838264068 0.000411695469635 -0.013348997741721 -9.874686369804147 -0.000037118757448 0.059605158913589 -9.967520621630884 0.00008222716088 -0.039352310437749 -10.125240108664277 -0.000019515861889 0.025905958365329 -10.025414550499615 0.000035048885565 0.117869700137254 -10.116867956218732 0.000109175855072 -0.211066453671656 -9.956289203265104 -0.000118835531353 -0.064573368794969 -9.792651482369063 -0.000051805438323 0.177932629965131 -10.03249041134516 0.000096378465412 0.001534260369635 -10.016598560897616 0.000029332139066 -0.06123147085316 -10.079973562987023 -0.000037977774472 0.18333802468367 -10.052837485337474 0.000102308194283 -0.121727689272588 -9.933335997934366 -0.000101801997245 -0.118335498418099 -10.063188329942591 -0.000102566295068 0.052762381634035 -10.266958503849034 0.000035963241256 -0.014645200405717 -10.04211829179309 -0.000083752233912 0.017942815026493 -10.180347492663133 0.000013044769897 -0.109621443370007 -10.046916846149946 -0.000080967616049 -0.019567578545788 -9.890626425281168 -0.000008937116308 0.066978745896269 -9.898013143448223 -0.000023542524768 -0.032013684665717 -10.098413084222228 -0.00000793767875 -0.016943069314953 -10.088511347328723 -0.000085012708811 0.008811129076553 -9.961254464568132 -0.000002338973347 -0.045603867364759 -9.959300049785876 -0.000044287024281 -0.161281938867905 -10.089285565912247 -0.000417889028878 -0.240629374751731 -9.826430306386493 -0.000541189294243 -0.056139878349813 -10.018822317908846 -0.004941621390415 -0.066415888859187 -10.042566399472866 -0.004972105265547 0.106843227203052 -9.958228143395324 -0.022107572697241 -0.100635088594237 -9.99288219552845 -0.022146540752369 -0.232734972550316 -10.100989738291656 -0.000166043605826 0.034576513403455 -9.888122628484838 -0.000024389346449 0.029284205582827 -10.138286248195362 -0.000026725781672 0.104276790219072 -9.94022972879632 0.000011652785861 -0.050551852270914 -10.23235309622453 -0.000066838059533 -0.019543503994225 -9.941633034413112 -0.000050437745033 0.000300746711481 -10.022004060927113 -0.00006023539573 -0.087624132137743 -10.059055137964416 -0.000066577650364 0.074126393734615 -10.136614013458132 0.000050297036801 0.131237885336393 -10.085993848443195 0.000098375318421 0.067467457829474 -10.039342948065338 0.000008570617252 0.057798275139775 -9.812521528302527 0.000039401819433 0.04440689927104 -9.98796940542907 -0.000001802526119 0.195610113077124 -10.092380769711076 0.000149385250702 -0.02050739831226 -9.937486290201726 -0.000036259933643 -0.046616241316305 -10.027275228326747 0.000028352499955 0.091626338190085 -10.061507093244215 0.000041261694212 -0.080876742897303 -9.941623082941945 -0.000020199561211 0.033274609512259 -9.935464384715283 -0.000002526023417 -0.10879014954602 -9.953184326888765 0.000048293601212 0.038314211754499 -9.919826824873708 0.000019357815109 -0.172801425050926 -9.963887643822465 -0.000040054481014 -0.031887539821025 -9.968339474559061 -0.00001411399891 -0.025510692489432 -10.037880811918264 0.00028029016893 -0.014262678592022 -9.888210856699667 0.00040806584722 0.227345650489576 -10.195475637238276 0.005093836686116 -0.007045165173512 -9.942458416920442 0.004966104571167 -0.024068896513415 -10.059999054121175 0.022114619009095 -0.107492211671683 -10.056124439172244 0.02210224832968 0.070482599371886 -9.979525842713514 0.000050887993431 -0.15430126212357 -9.866367930057988 -0.000112542379503 0.033719341436345 -10.229703744839046 0.000035659465046 0.001851194928058 -9.806736721473351 0.000015841133316 0.093175990911834 -9.852694921078616 0.000042002961791 0.004925406310136 -9.903684650461081 0.000019465943482 -0.11361402982953 -9.923464202493756 -0.00013403586384 0.175655134552509 -10.027641267249344 0.000052465921823 0.050413860740242 -10.05595092902629 -0.000003694627155 -0.123940310362749 -10.116171709110027 -0.000087345092952 0.048139974208168 -10.110164223400998 -0.00003887925286 -0.106503637040485 -10.025103450412018 -0.000054836879406 -0.128602204487334 -10.05114449014965 -0.000072436502914 0.033327425281682 -10.045186583009301 0.000055223204974 0.166721240315709 -9.979792981008398 0.000120292230958 0.015403472081457 -10.161954005353278 0.000040958627777 -0.151317404598635 -9.977380672480873 -0.000077330580816 -0.14663875173973 -10.046538742617262 -0.000085508287723 0.170286134055564 -10.017022491433638 0.000040242549838 -0.089243599449602 -10.008908466965295 -0.000041484547478 0.08015527363551 -10.13302132182451 -0.000016907838631 -0.09006718378762 -10.068762454725425 -0.000185843051533 -0.221201839249798 -10.176512816655437 -0.000294780387399 -0.168535402498374 -9.932318679665054 -0.000525838022743 0.106174422899696 -9.993383660232777 -0.00037123449747 0.011419006592327 -10.00384602275334 -0.005096938110995 0.121000621048647 -10.036368921168485 -0.004979529015483 0.017726290633437 -10.198022138877118 0.000038848056026 0.07619139924223 -9.870583755293595 0.000041005775892 0.111367423224582 -9.991586886253755 0.000025065888556 0.018493608044355 -10.085586765282381 0.00005498762386 0.033498283399097 -10.012719469602626 0.000021315563637 0.009170157601711 -10.05460775790913 0.000007058290276 0.148438974604045 -9.991459352874386 0.000082278078829 0.076417455020418 -10.01412842021824 0.000050727616352 0.03592051652513 -10.044933310267755 -0.000001697896269 0.076433915168748 -10.096998741304413 -0.00001827003629 0.133097841773834 -10.012818935078446 0.000101135122139 0.01146242018343 -9.857380661850176 0.000035709997356 0.048231016098476 -10.173332867089197 0.000031674736609 -0.061139413907314 -10.071399475531155 -0.000065077646257 0.146258228250428 -9.92731868769207 0.000148123649229 -0.106158985465231 -9.935219928489678 -0.000061175517166 0.09433798738477 -9.90400344691683 0.000046086707052 -0.136065893710597 -9.899854547690659 -0.000072362525706 0.036586575541966 -9.953966