<?xml version="1.0" encoding="UTF-8" standalone="no" ?>
<VTKFile byte_order="LittleEndian" type="UnstructuredGrid" version="0.1">

  <UnstructuredGrid>
    <Piece NumberOfCells="0" NumberOfPoints="801">
      <PointData>
        <DataArray Name="mass" NumberOfComponents="1" format="ascii" type="Float32">1 1 1 1 1 1 1 1 1 1 1 1 1 1 1 1 1 1 1 1 1 1 1 1 1 1 1 1 1 1 1 1 1 1 1 1 1 1 1 1 1 1 1 1 1 1 1 1 1 1 1 1 1 1 1 1 1 1 1 1 1 1 1 1 1 1 1 1 1 1 1 1 1 1 1 1 1 1 1 1 1 1 1 1 1 1 1 1 1 1 1 1 1 1 1 1 1 1 1 1 1 1 1 1 1 1 1 1 1 1 1 1 1 1 1 1 1 1 1 1 1 1 1 1 1 1 1 1 1 1 1 1 1 1 1 1 1 1 1 1 1 1 1 1 1 1 1 1 1 1 1 1 1 1 1 1 1 1 1 1 1 1 1 1 1 1 1 1 1 1 1 1 1 1 1 1 1 1 1 1 1 1 1 1 1 1 1 1 1 1 1 1 1 1 1 1 1 1 1 1 1 1 1 1 1 1 1 1 1 1 1 1 1 1 1 1 1 1 1 1 1 1 1 1 1 1 1 1 1 1 1 1 1 1 1 1 1 1 1 1 1 1 1 1 1 1 1 1 1 1 1 1 1 1 1 1 1 1 1 1 1 1 1 1 1 1 1 1 1 1 1 1 1 1 1 1 1 1 1 1 1 1 1 1 1 1 1 1 1 1 1 1 1 1 1 1 1 1 1 1 1 1 1 1 1 1 1 1 1 1 1 1 1 1 1 1 1 1 1 1 1 1 1 1 1 1 1 1 1 1 1 1 1 1 1 1 1 1 1 1 1 1 1 1 1 1 1 1 1 1 1 1 1 1 1 1 1 1 1 1 1 1 1 1 1 1 1 1 1 1 1 1 1 1 1 1 1 1 1 1 1 1 1 1 1 1 1 1 1 1 1 1 1 1 1 1 1 1 1 1 1 1 1 1 1 1 1 1 1 1 1 1 1 1 1 1 1 1 1 1 1 1 1 1 1 1 1 1 1 1 1 1 1 1 1 1 1 1 1 1 1 1 1 1 1 1 1 1 1 1 1 1 1 1 1 1 1 1 1 1 1 1 1 1 1 1 1 1 1 1 1 1 1 1 1 1 1 1 1 1 1 1 1 1 1 1 1 1 1 1 1 1 1 1 1 1 1 1 1 1 1 1 1 1 1 1 1 1 1 1 1 1 1 1 1 1 1 1 1 1 1 1 1 1 1 1 1 1 1 1 1 1 1 1 1 1 1 1 1 1 1 1 1 1 1 1 1 1 1 1 1 1 1 1 1 1 1 1 1 1 1 1 1 1 1 1 1 1 1 1 1 1 1 1 1 1 1 1 1 1 1 1 1 1 1 1 1 1 1 1 1 1 1 1 1 1 1 1 1 1 1 1 1 1 1 1 1 1 1 1 1 1 1 1 1 1 1 1 1 1 1 1 1 1 1 1 1 1 1 1 1 1 1 1 1 1 1 1 1 1 1 1 1 1 1 1 1 1 1 1 1 1 1 1 1 1 1 1 1 1 1 1 1 1 1 1 1 1 1 1 1 1 1 1 1 1 1 1 1 1 1 1 1 1 1 1 1 1 1 1 1 1 1 1 1 1 1 1 1 1 1 1 1 1 1 1 1 1 1 1 1 1 1 1 1 1 1 1 1 1 1 1 1 1 1 1 1 1 1 1 1 1 1 1 1 1 1 1 1 1 1 1 1 1 1 1 1 1 1 1 1 1 1 1 1 1 1 1 1 1 1 1 1 1 1 1 1 1 1 1 1 1 1 1 1 1 1 1 1 1 1 1 1 1 1 1 1 1 1 1 1 1 1 1 1 1 1 1 1 1 1</DataArray>
        <DataArray Name="velocity" NumberOfComponents="3" format="ascii" type="Float32">0.111227985068735 -10.034496598040723 0.000001256554022 0.0608057205513 -9.935917231909619 0.000000263292944 -0.071208373167283 -9.884090641231158 -0.000000352909693 -0.171895075556123 -9.958252639930802 -0.000000900176483 -0.040006669815608 -9.77193803195974 -0.00000181245333 -0.22717399653986 -9.977481588713735 -0.000002880228632 0.086633467727061 -9.861288484339427 0.000000589590882 -0.103258261047389 -9.969191032357745 -0.000001005956062 -0.03582134869421 -9.96993607768542 -0.000001516691321 -0.111381965553401 -10.032144656890006 -0.00000124457309 0.004743358045427 -9.875608990566311 -0.000002003969262 0.084485181780286 -10.152939538510433 0.000000725175929 0.222415127286443 -9.960708727148321 0.000001740124507 -0.000641990643316 -9.952732928165288 -0.000000307217633 -0.074984302171364 -9.901942005421702 -0.000001112632462 0.015422874635239 -9.844401245206823 -0.000000082546549 -0.022797867534114 -9.910558497295108 -0.000000223210037 -0.1328417222457 -10.090395943683809 -0.000001652996559 0.005418708458436 -10.086262478047232 -0.000000743541163 -0.106203712476277 -9.943718223268784 -0.000000055105187 0.078689341645344 -10.030468881399688 0.000000573794924 -0.006954470107709 -10.071794522123085 0.000000778031045 -0.170497607350488 -9.970926251094271 -0.00000217188923 -0.06410211791165 -9.866388253302363 -0.000000316459369 0.01555967283875 -9.791853662138989 0.000001103576462 0.003858726302826 -10.056275271629893 -0.000000031721982 -0.010552218294056 -9.92684871626558 -0.000001148129068 0.031923895697644 -9.984310094993262 0.000000464620342 -0.089113693864584 -9.900837400204184 -0.000001914201621 0.13171415336518 -10.139259746298174 0.000001531138382 0.050562768820992 -10.087925834365215 0.000000704274043 -0.015936029944995 -9.898912031685963 -0.000001282917749 0.097400274691109 -10.050150001746243 0.000001224828413 -0.024237120595322 -9.964817619713822 -0.000001152556782 -0.107401245787346 -9.866054911033245 -0.000001095620444 0.052893868878214 -9.989715679593816 0.000000127260329 0.039698584873853 -9.90947243525407 0.000001390851021 -0.01110895320837 -9.922089033369353 -0.000000652456573 -0.039480248269401 -9.877685128044087 0.000000131889192 0.026450411857725 -9.941012035432394 0.000000665749001 -0.009230001764892 -10.149759796564167 -0.000000160862201 0.194077825292298 -10.093582241095538 0.000002450917162 0.079944440315904 -10.146352304910115 -0.000000046718116 0.101150712220114 -10.06809935743602 -0.000000117736913 -0.029007230316368 -10.150005167190431 -0.000000674969919 -0.083408442800176 -10.059700004224467 -0.000000507925172 0.14174978512898 -10.209669075351222 0.00000098513883 -0.00282327168526 -9.83860219208522 0.000001053108545 0.153809001245575 -10.097425779979323 0.000001862046133 0.133882891225094 -10.070376209369259 0.000002096151296 -0.076360116639283 -10.099302495758913 -0.000000259031898 0.049394844529143 -10.149387085132979 0.00000015400577 -0.070392153578918 -9.953014274694565 -0.00000142776156 -0.03505774348869 -9.972554214285095 0.00000019529225 -0.069382688431985 -9.949406413251616 -0.000000772728155 -0.066206893410524 -9.996784313037287 -0.000000470278994 -0.067227152543756 -10.054007245970064 -0.000001267295413 0.083392637376348 -9.93478617222036 0.000001319654175 0.007580358169973 -9.978044680387146 -0.000000480183329 0.068766827969883 -9.871284336272163 0.000001315729142 0.003934328836053 -10.084060585908649 -0.000001187390959 -0.015897502118034 -9.86633269256464 -0.000001659163595 0.043826618918271 -9.847290850357565 -0.000000188050361 0.035920525038011 -10.122212188341303 0.000000397761186 -0.111953681828735 -10.035982286270748 -0.000000969461308 -0.205442813479329 -9.923523810815022 -0.000001143928267 0.223060306881429 -10.133122264545772 0.000002925063496 0.029759398816301 -10.063536767697476 0.00000122992964 0.019276858550942 -9.839060152367738 -0.000000430812982 0.020383869041286 -9.900038064315458 0.00000083678197 0.135383706806882 -9.929571715765807 0.000002301764331 0.006970863189195 -9.993801046650061 0.000000583491819 0.209468175746427 -10.003447704105001 0.000003086745017 -0.034890263005613 -9.965762835477076 -0.000000250386192 0.074667737433329 -10.125645027150922 0.00000022578697 0.061605768285503 -10.128848625032987 0.00000074786368 0.115381970605018 -10.105308865994093 0.000001487063031 -0.072200767331682 -10.11322603089002 -0.000001199296492 -0.064443216249065 -9.979875315793976 -0.000000823859553 -0.119287195239267 -9.934792693442139 -0.000001526629417 0.001095922113965 -9.95165579283268 -0.000000328956122 -0.1750459727341 -9.963275801538048 -0.000002365441509 0.033818096875939 -10.059621080599301 -0.000000516162666 -0.075463078107101 -9.755168224302091 -0.000000214151932 0.066529826091644 -10.007336318167653 0.000001120268629 -0.04370132325991 -9.907164584437229 -0.000000339465623 -0.16894329075894 -9.892720848898835 -0.000001732139918 0.062338238616383 -10.04984357962309 0.000000733611734 0.203241733133839 -10.019675008115493 0.000003057984676 -0.017854295245868 -10.193392885401403 0.000000596605771 0.057709770630441 -10.085679715853184 0.000001615578447 0.011611524766501 -10.045730947458006 0.000000469630826 -0.074039942255976 -9.829392826260429 -0.000000878619882 0.141396484722458 -9.888134754429915 0.000001794187154 -0.052004315514153 -10.107241379122677 -0.000001965472684 0.136179044232748 -9.841331467569445 0.000001967107007 0.119353387571734 -10.088765845396738 0.000000631363181 0.064952916727348 -10.080418210914198 -0.000000036991278 0.05310352933923 -9.976722340029443 0.000000388402865 0.079507756326884 -10.125998084770288 0.000000996443243 0.006830041852027 -10.08680647602902 -0.000000987688029 -0.035885540508084 -9.943494628826993 -0.000001365169609 0.027921790868224 -10.060914051525531 0.000000224211271 -0.082574278617085 -10.029400375139565 -0.00000201426113 0.151489575925773 -9.815948714655336 0.0000011561662 0.097505534375794 -10.123636229279628 0.000000859655319 0.095666619408589 -10.07337273082824 0.000001239878208 -0.056580444459122 -10.103033273956758 -0.000000602539633 0.098357932987622 -10.05061376287401 0.00000105945749 -0.131747683259894 -10.026833645789143 -0.000001734272267 0.102553936964012 -9.922933000885706 0.000001045037039 -0.073974456271496 -9.963742527540376 -0.000000945642469 -0.056138452819794 -9.867481783301592 0.000000075865702 0.03989746893578 -10.032656773630134 -0.000000257430124 0.142193623863103 -9.976690115774046 0.000002941219426 -0.028180251193409 -9.943731694221581 0.000000137502206 -0.006679099415994 -9.725873780089209 0.000000558888729 -0.075803764799131 -10.050766029753028 -0.000001007076721 0.11234092202132 -10.002393433802773 0.000000879888996 -0.012331238475162 -9.88156181623398 -0.000000577597978 -0.003596875966943 -10.187371365632147 -0.000001218283573 -0.095576519733808 -9.944269040739668 -0.000002240536949 0.042471230728449 -10.069336437015791 -0.000001288426001 0.250412550058105 -10.016445077698094 0.00000081191728 0.076180365316961 -9.949513924542238 0.00000019093772 -0.060890973688568 -10.052593034740298 -0.000001028190809 -0.000410907829572 -10.105358050692763 -0.000000657784754 -0.094089425789829 -10.036290887470905 -0.000000635661518 -0.01992766827103 -9.950897875466895 -0.000000655620283 0.076498181161882 -9.977176915558921 0.000000719981085 0.040139002082288 -9.962070281576253 0.000000481945713 -0.00500673915773 -10.210440756521137 0.000000212747256 -0.108747398634855 -9.836587695963907 -0.00000313950797 0.065681197985966 -10.145441340451928 0.000001345364861 -0.078787189852322 -9.97041932609492 -0.000002615509318 -0.089693154219507 -10.139197436801338 -0.000000429101328 -0.026712831929824 -10.064770572496551 -0.000001125028115 -0.01174092035741 -9.929828205782979 -0.000000514806641 0.056053153518622 -10.157294004993254 0.000000136718414 0.072634213042564 -9.880246550150053 0.000001938379326 -0.004502082683513 -10.122725923627542 -0.000000255468846 0.088191393293156 -9.971087510673163 0.00000224506217 0.008857454420295 -10.14606551666037 -0.000000481699599 0.159223186548829 -10.204094117979134 0.000003039876898 0.115382960281936 -10.036930220654648 0.00000106478562 -0.114607689481412 -10.077991533231893 -0.000000667218158 0.135156820607846 -9.918328565851542 0.000001163538643 0.069980920282492 -9.932255596696045 0.00000139152814 -0.034618094766791 -10.064611304445094 -0.000000037510456 0.067917098621514 -9.959005780059854 0.000001512287871 -0.061951009899885 -10.006939634541769 -0.00000114728064 -0.146876026268855 -10.013889067883767 0.000000246065533 -0.081669942967132 -10.023231889819613 0.000000210611802 -0.12938360962525 -9.899417256380168 0.00000011687425 0.025433443640049 -10.028352380628991 0.000001978888948 -0.022391140484873 -9.851321121500238 -0.000000870582906 0.183180839956697 -10.054728988926801 0.000001884180864 -0.096393186374379 -9.977325008170906 -0.000002074960054 0.249573699076025 -9.905131246995454 0.000002549703108 0.118544593773858 -10.172189116402171 0.00000046899466 -0.033505543460523 -9.933451320393122 -0.000001341580338 -0.009086528601351 -10.128093260371056 -0.000000403818821 0.237661432719257 -9.944232585067471 0.000002610786913 0.169231814443251 -9.863191847894175 0.000001775130699 -0.051050706207091 -9.936804144611505 -0.000001582351313 -0.010263150084503 -10.154168402985384 0.000000847899644 0.084835037393226 -10.054264386830893 0.000000638968112 -0.032552235135552 -9.913824827090314 -0.000000747215754 -0.052674822972741 -9.893527818905936 -0.000002640994796 0.009123576270363 -10.026545859133075 0.000000188570838 -0.072396050002704 -9.916964975778843 -0.000002573249304 0.040410722076326 -9.892203778695807 0.000001209949986 -0.070754752961678 -10.102849336693717 -0.000001563373561 -0.124232747184393 -9.953729232803953 -0.000001921975527 -0.072232782679931 -9.967714735232049 -0.000000805096666 0.091435201710374 -9.928929915553487 0.000000660526053 -0.12887850833612 -10.0424950436618 -0.000001678744155 -0.182322810029651 -10.065251788849039 -0.000001908614226 -0.134895906607856 -10.057301061793821 -0.000003822042336 0.011453837883742 -10.120393293794065 -0.000000579856237 0.003441433741775 -10.030269254446395 -0.000007077862106 -0.148896707364856 -10.146356787429788 -0.000007933339823 -0.088573549353344 -9.892642541056148 -0.000018223824243 -0.128199157447405 -9.919292121935316 -0.000020101234657 0.010102926388969 -9.920692993895157 -0.000028007313538 0.058643893470414 -9.900327783500096 -0.000028419607962 0.112784322556315 -10.107127778676446 0.000001209731009 0.011601512719251 -9.879040996943019 0.000001012393737 0.127220148863484 -9.846779599565888 0.000001642221335 0.046366833350745 -10.248556917138245 0.000000280315507 -0.086531997341519 -9.862623088723863 -0.000001635312558 0.102768184173637 -9.939518055108843 0.000001312453067 -0.042264395424868 -9.98199230873716 -0.000000652546374 -0.118604477830214 -9.954854321034606 -0.000001517378133 0.175725969425882 -9.940493154426123 0.000003131851935 -0.088110021733504 -10.107834568533287 -0.00000146435211 0.039760927202646 -9.90850375186605 0.000000775176113 -0.104304591629897 -10.051918626667282 -0.000000830204457 0.035025730678817 -9.920681389597515 0.000000191985968 0.108208554743007 -10.13179880046647 0.000001080073242 0.012703405572265 -10.010330254740737 -0.000000142842064 -0.122833871087383 -9.998757293942344 -0.000002327092786 0.095538973399283 -9.948998820793081 0.000001080445109 -0.079968771509899 -9.843814055470977 -0.000001038885371 0.107895339067011 -9.986123882776431 0.000001681398872 0.010529159419988 -9.980886267306456 -0.000000203153132 0.008690388173122 -9.926794727825067 0.000000104208853 -0.031717099814113 -9.701981234030498 0.000000810704621 0.124337435437716 -9.962590056041702 0.000001499704566 0.046277334439675 -10.018577579112547 0.000003027082148 0.099576082205101 -9.976259632291207 0.000003290705115 0.068461958885869 -9.871247312058586 0.000007025708657 0.063212042322274 -9.932286909074559 0.000006932757195 -0.148381093275289 -9.93535582520445 0.00001691500544 -0.011152597058914 -10.125673336934712 0.000017633006877 0.031497875504334 -9.96306442230131 0.000029222162392 0.082729711061516 -9.961622717222474 0.000029244580397 -0.138130776673782 -9.823302627145338 -0.00000241165512 0.113564587420327 -9.829385985102846 -0.000000283370011 0.012822060571945 -10.116877610384488 0.00000079908709 0.007758680850952 -10.045823385944802 -0.000001454753368 0.189773044881895 -9.982877600538457 0.000001354889145 0.127403610437089 -9.994253010386359 0.000001069845522 -0.100947611991632 -10.002658848800161 -0.000002347047396 0.001461130249965 -10.063777252480458 -0.000001282372045 0.118890118741116 -10.043614479895508 0.000000558370724 0.20973695817852 -10.072943024875393 0.00000275317427 -0.108296724307263 -10.026420792141536 -0.000001512623177 -0.147486520324335 -10.054372308872654 -0.00000220973185 0.030473916102209 -9.870677192609167 0.00000042995143 0.214407901095577 -10.138056161458177 0.000001672510038 -0.000850868288033 -9.981389664941391 -0.000000282323456 0.170378947723223 -9.882300490180285 0.000001752233142 -0.068573457248446 -10.069249445631394 -0.000000751511246 0.020436575688228 -9.933533580647437 0.000000439880286 0.168900329585387 -10.026367294200153 0.000002171991192 -0.020126205055688 -9.8851715586311 0.000000369129395 0.033436542787625 -9.977638382919784 0.000000213836106 -0.202607658943365 -9.955275394273341 -0.000003524640256 -0.150986454647869 -10.012057131732965 -0.000001632420089 0.063982739443194 -10.004821032872567 -0.000004582530545 -0.132915306222269 -10.01760966810169 -0.000006483909181 0.073433195995813 -9.930318749332823 -0.000045774361578 0.041280601939213 -10.024568191605031 -0.000046581150377 -0.168750701681224 -10.098860935357312 -0.000654060560578 0.19992128811589 -9.819127612648558 -0.000650563335271 0.044064593124595 -10.120852098256119 -0.002950347734224 -0.037908174909462 -10.219886729864475 -0.00295120319257 0.023878837713555 -9.935394237452373 0.000000114213782 -0.130504530472469 -9.951928274593545 -0.000001106209144 -0.050572441326376 -10.120327627629141 -0.000001272724254 0.17394499670722 -9.889982899436204 0.000001923807519 0.167539446337296 -9.90864490713536 0.000002936825642 -0.067425848309159 -9.990663221683084 -0.000001565898792 0.038226316842247 -10.154592935930683 0.00000110848771 0.051947726270324 -9.861381738093735 0.000000798562965 -0.12683424278466 -10.020192128503735 -0.000002115988506 -0.006026872442784 -9.855104321596832 0.000001090156536 0.00964523922942 -9.967704321429334 -0.000000118380318 -0.080023005621701 -10.048048141199963 -0.000000947798476 0.086638321662901 -10.030380587871424 0.000000614069566 0.042306071860322 -9.973781312868326 0.000000090261431 -0.018767073872808 -10.176033439233173 -0.000000632865308 0.096476792046773 -9.967512147127483 0.000001409663889 0.019631124687981 -9.961928225516628 -0.000000062434997 -0.084741856273618 -10.058393158027998 -0.000000204647716 -0.050400214396567 -10.044962033151643 -0.000001471568802 0.043798222912527 -10.112376792561673 0.000000803949538 -0.045312642858047 -10.033071959038818 -0.000000025191053 -0.054085098093635 -9.789499340235968 0.00000124365926 0.017656012209388 -10.066380791678766 0.000000380195063 -0.24871050918519 -10.008343943008189 0.000002569242443 -0.053659827490595 -10.174974916754978 0.000004515549407 -0.01813794645632 -9.970859429526319 0.000047158657718 0.028359780487761 -10.1321774291533 0.000047039299027 -0.048360243573685 -10.008467059065294 0.000652568920363 0.072757196242089 -9.940531169592454 0.000654029008483 -0.050913859629379 -9.999218888455683 0.002950269365562 -0.106285162539314 -9.938953326874806 0.002949824826751 0.121058143635301 -10.104423881011954 0.000002081539764 0.080227834205538 -9.969781969811873 0.000000690708855 -0.014442247950302 -10.040972600070875 0.000000150156454 0.061010840862699 -9.930629980316699 0.000000607159408 0.116002828017649 -9.893847916893838 0.00000149152404 0.061736323406098 -10.02856094361724 0.000000615462067 0.103079277373266 -10.082466433197609 0.000001464031839 0.051049581207329 -10.051305724402996 0.00000013645484 0.012169297830303 -10.059648671107032 0.00000014374525 -0.039356751585988 -10.055979922403331 -0.000002055640338 0.012717743310666 -10.06307720927742 -0.000000186128104 -0.021340242679525 -10.167540102253591 -0.00000045001091 0.031272732968179 -10.11896301899046 -0.000000349483003 0.25402251769922 -10.071026871705516 0.000002247015885 0.081323397884891 -9.747883554310008 0.000000525475645 0.074105083800294 -10.08875114847231 -0.000000227699599 -0.136178256791696 -9.922850782707247 -0.00000161304265 0.002760796337058 -10.03497016301916 -0.000001243260869 0.0560952753503 -10.019823562851418 -0.000000590237832 -0.144778807501496 -9.988862700065956 -0.000002190009561 -0.083520687920991 -10.162630199304031 -0.000002617589216 0.136730453356914 -9.889750462445239 0.000001565220693 -0.041076002011538 -10.167393909548538 -0.000001720371019 0.123778524140457 -10.101798076751509 -0.00000420737165 -0.075480182643932 -9.9314591962588 -0.00000644335524 -0.112556028809831 -9.915202431883845 -0.00005019919496 0.107106774766542 -9.968781352876855 -0.00004704083176 -0.123644258102209 -9.885597406941564 -0.000656096745478 0.008562541392827 -9.879155101625189 -0.000654710978337 -0.08581692374455 -10.083721221816532 -0.000000738491652 -0.079405709909066 -9.997317683545283 -0.000000875325841 0.088056770116097 -9.974870207104361 0.000000960430534 0.012715579442025 -9.868362854768749 -0.000001331509376 -0.138752191028927 -10.124484102487726 -0.000002877292247 -0.019866507178006 -10.000492204147479 -0.000000955183193 -0.102865296072561 -9.896624811276849 -0.000001772797149 0.133465896099331 -9.996913395451802 0.000001186599449 -0.00628904784851 -10.081514089924038 0.000001164072192 -0.138344417498037 -10.007306829324344 -0.000000932969569 -0.026944852633277 -10.016550526974912 -0.000000366353124 0.152125686102394 -9.919934428586444 0.000002754950915 0.012379793259262 -10.011225503344521 -0.000000321253141 -0.015125605676621 -9.838245167957009 -0.000000816072998 0.052654479172132 -9.841666579174504 0.000001311288313 0.01569120218268 -9.972793417752895 0.000000102158708 -0.015297530107066 -9.989089820726328 -0.000000211831395 -0.079805309567515 -10.092393373997599 -0.000000575912491 0.094837983878312 -10.085587853749875 0.000001313587286 0.021762747636497 -10.033685067567777 0.000001751721412 -0.106049616641645 -9.871258018777196 -0.000000201256241 -0.150252751052382 -10.226633926498888 0.00000084912649 0.114802790401416 -10.131125189643873 0.000003075956683 0.027014037070372 -10.099492795866889 0.000007261285358 -0.070970068147398 -10.020661325668163 0.000005541615431 -0.088010947286989 -9.961803798499368 0.000048012410009 0.039163260699518 -10.136562775195173 0.000049142787312 0.204957363305365 -9.966245787042016 0.000657271617154 -0.014564527199207 -9.962773585493995 0.000654523666087 0.031907432632235 -10.044965010225654 -0.000000262806694 -0.05621863132092 -9.99820570633935 -0.000001277106241 -0.046270686144625 -10.13250850330178 -0.000000921874339 -0.016936121954361 -10.121515525325588 -0.000000682507788 -0.179541627069609 -10.062014148567998 -0.000003069167249 -0.106369681747593 -10.010861674213233 -0.000000974716539 0.104180890909347 -9.932719557145132 0.000001106832217 0.011007999003413 -10.131220458009031 -0.000000722237727 -0.167576269350086 -9.856147598913084 -0.000002555876829 0.09642908542487 -9.860479905296948 0.000001408988807 0.098244047965421 -10.23269715723246 0.000000301728881 0.124581546012206 -9.969986376299309 0.000002127480862 0.124488557104115 -10.054167309851678 0.000001474195611 -0.023598358431963 -10.08038914870057 -0.000001550823495 0.121987463200219 -10.044623387672335 0.000001216206084 0.002583985684265 -9.995462999249243 -0.000001024840831 0.02815730976498 -9.97325941846192 0.000001481430345 0.139432441241563 -9.912072450461508 0.000001506742 0.030172779444189 -9.766989347489124 -0.000000150924684 0.008277702474022 -9.728372831645098 0.000000120394035 0.144232950591596 -9.943784475570618 0.000001450094518 -0.06516706291373 -9.940540079530265 -0.000003861135134 0.070340769290618 -9.951923390301133 -0.000000859592867 -0.102568107133134 -9.945989934773801 -0.00000909658772 -0.031581899208567 -10.066509589922385 -0.000007144083779 -0.015457002912576 -10.175873001439776 -0.000023451147942 -0.090554488388873 -10.063332450821321 -0.00002532854645 0.015330405954072 -9.958371718526204 -0.000045675706217 -0.153150521120403 -9.994262136241071 -0.00004718753021 -0.076015147846561 -10.043592070768995 0.000000700610215 0.083744944733033 -9.80166633820687 0.000001384875473 0.047494557857737 -10.033969753420504 0.000000511446993 0.146714979602475 -9.890901380035439 0.000001327919795 0.043842421063842 -9.958743217752119 0.000001405639376 0.134389209142297 -9.825257123896833 0.000001757781156 0.072382254317001 -9.924712944789444 0.000001434997949 -0.020549086903343 -10.040312022463521 -0.00000051121824 -0.109328597697686 -10.047739266883722 -0.000001679894203 -0.097553962707157 -10.207673023723974 -0.000001216837985 0.027800608785633 -10.075248277344011 0.000000045956128 -0.038367704724441 -9.918718101790995 -0.000001642592645 0.023344177692334 -10.085884925998412 0.000000077299464 0.075291059600396 -9.938542085652253 -0.000000032613733 -0.12661668830248 -10.166590224913993 -0.000001670067048 -0.069880042428646 -10.150473574472768 -0.000000255077318 0.015630056258115 -10.067725616706271 -0.000000275071266 0.089340580936879 -10.015129268101374 0.000002450027726 0.076210951629488 -9.965078348289705 0.000000679805794 -0.247817780648704 -10.178568703571401 -0.000001364506407 -0.073293666782054 -10.097283804321853 0.000000094658493 -0.15242501900407 -9.954001079985289 0.000002102572658 -0.0382627964105 -10.071959222302667 0.000001571013523 0.165884860623136 -10.013265570240401 0.000009864391969 -0.006387144084414 -10.139032194845441 0.000008262169223 -0.058201895559636 -10.08940644666502 0.000022525452114 -0.060851229844735 -9.910429768633193 0.000023565843374 0.107152236974244 -9.868507007317181 0.000046369110947 0.043520181850817 -9.795954324766056 0.000047141443391 -0.013319559265562 -9.871968859722157 -0.000000685557331 0.059552443351721 -9.967828827929175 0.000001434622563 -0.039341334726378 -10.12725118958674 -0.000000372474672 0.025882814656198 -10.026423417350909 0.000000594688677 0.117793016175637 -10.119441508906823 0.000001914953096 -0.210991742505777 -9.955125889173395 -0.000002146546258 -0.064532495468704 -9.78824373975732 -0.000000955241567 0.177865282685387 -10.032712971761507 0.00000167053201 0.001512210921448 -10.01813159657741 0.000000478826807 -0.061207620160217 -10.081566935909056 -0.000000735192888 0.1832702595747 -10.052979744980536 0.000001758632401 -0.121655469412657 -9.92943041204331 -0.000001900158497 -0.118267281526429 -10.063445848383573 -0.000001913105534 0.052735815640036 -10.270341525222047 0.000000486125866 -0.014586747718391 -10.041904585811078 -0.000001642553616 0.017933549147534 -10.181933534821843 -0.000000052585251 -0.109564168777152 -10.04818825059543 -0.000001723151719 -0.019562788751747 -9.886637588013071 -0.0000007562546 0.067000097097609 -9.895322602266589 -0.000001016838257 -0.032005310312001 -10.101190091677745 -0.000001681792731 -0.016880794671815 -10.09108947281366 -0.00000305073247 0.008826020953474 -9.958924723329327 -0.000005861238572 -0.045571212657165 -9.959500403571196 -0.000006606415523 -0.160928001985424 -10.089955070555709 -0.000050144471254 -0.240197500466694 -9.824615421933206 -0.000052338734275 -0.051860927719665 -10.010290936168767 -0.000656395637776 -0.062112499476444 -10.053115764278965 -0.000656939566602 0.126012869240954 -9.945073359856591 -0.00295278956542 -0.08143916744476 -10.005148269446277 -0.002953483009786 -0.232627681656938 -10.1023653744956 -0.000002926491133 0.03459697159503 -9.886035720599033 -0.000000407043841 0.029305340818733 -10.137806653632351 -0.000000449405724 0.104273573238354 -9.940652375735983 0.000000234985596 -0.050508009203616 -10.234820147810174 -0.000001158739829 -0.019513292552676 -9.940713043853707 -0.00000086310729 0.000342604395667 -10.0193734945038 -0.00000103650003 -0.087584844459891 -10.059774555505435 -0.000001138939979 0.07409314564727 -10.138321773539179 0.000000935894285 0.13117122400192 -10.088357216663882 0.000001807984722 0.067462487574203 -10.03896697406678 0.000000213351272 0.057776094980141 -9.80808372665804 0.00000079182224 0.044409756572956 -9.987962815142629 0.000000059965939 0.195508461835787 -10.095183118103941 0.000002810839568 -0.020481682152796 -9.936085741590272 -0.00000048975234 -0.046640866276898 -10.027395621532957 0.000000788939142 0.091596318059839 -10.063539250202439 0.000001017522465 -0.080862113681607 -9.940857170509114 0.000000236544422 0.033275127897547 -9.934586935899011 0.000000552575964 -0.108828958859059 -9.953148908318376 0.000002397958441 0.038298390235979 -9.919341342794212 0.000001884181359 -0.172786335623854 -9.963240997071813 0.000005108718958 -0.031885932616655 -9.969558965319257 0.000005570368634 -0.025765299215223 -10.03623286121314 0.000047699448403 -0.014612085845364 -9.888078851105572 0.000049971165002 0.222966530742937 -10.189404852605847 0.000659101395148 -0.01134410166343 -9.950416248207727 0.000656830370478 -0.043241365240132 -10.046240728347673 0.002952915698601 -0.126657414227299 -10.069719419116831 0.002952696080577 0.070447852553283 -9.978436826202342 0.000000862645763 -0.154226184448506 -9.86596630158215 -0.000002042794088 0.033694916921472 -10.234735489707855 0.000000590779139 0.001839748251864 -9.80548212658193 0.000000233011524 0.093152175550255 -9.849041812427757 0.000000695320499 0.004912085202653 -9.903477916056179 0.000000291116661 -0.113522837825745 -9.923040553240437 -0.000002442106773 0.175625450897744 -10.027915723248864 0.000000858960578 0.050413363473747 -10.05654381062091 -0.000000137484686 -0.123883590825098 -10.117593593363347 -0.000001655988354 0.048166165477513 -10.111051152263851 -0.000000794736446 -0.106466594700783 -10.024239276652716 -0.000001139723074 -0.128553693070164 -10.051251589891866 -0.0000014530005 0.03329490487125 -10.04439580957092 0.000000688013875 0.166642255067639 -9.979241707477362 0.000001848296706 0.015374214094214 -10.163783345068598 0.000000156065561 -0.151267329354775 -9.977072714802199 -0.000001947489385 -0.146580316603355 -10.045903986344859 -0.000002806115898 0.170265799344771 -10.016466667543103 -0.000000570098042 -0.089210068970113 -10.008030021678499 -0.000004150898308 0.080172985689173 -10.133652459853694 -0.000003712709578 -0.089918949990298 -10.069993118895358 -0.00001478029358 -0.220980589204159 -10.178695095297231 -0.000016719807584 -0.168089816974617 -9.926950440924518 -0.000067439044447 0.106513734745692 -9.995252730228067 -0.000064686831912 0.015838016815479 -9.9959109086727 -0.000682395230047 0.125339831659293 -10.045236776696822 -0.000680307480173 0.017702578446729 -10.202279982981736 0.000000730759816 0.076166235772629 -9.866217625843895 0.000000772408748 0.111355299126049 -9.989726016321015 0.000000488191213 0.018451443092593 -10.087604526120158 0.000001027353709 0.033478890005207 -10.013079665725879 0.000000428175243 0.009163092529789 -10.054705587556306 0.000000182394286 0.148384852947057 -9.990854538673101 0.00000151717771 0.076383920846318 -10.013113051244579 0.000000973897929 0.035926816281655 -10.045651128361833 0.000000041821962 0.076452088642601 -10.099544545397517 -0.000000220204191 0.133025783051839 -10.011264810507969 0.000001903344607 0.011432464151139 -9.853744896697076 0.000000800620624 0.048205908845128 -10.176614250421022 0.000000728707739 -0.061094803378122 -10.074229944251883 -0.000000868031193 0.146155220250475 -9.925504225403934 0.000002924785999 -0.106117579664072 -9.934419185128279 -0.000000515559711 0.094306894181378 -9.903444090275547 0.000001392123135 -0.136020832579735 -9.897928095739069 0.000000001009928 0.036583131585533 -9.953779964549204 0.0000012774648