<?xml version="1.0" encoding="UTF-8" standalone="no" ?>
<VTKFile byte_order="LittleEndian" type="UnstructuredGrid" version="0.1">

  <UnstructuredGrid>
    <Piece NumberOfCells="0" NumberOfPoints="801">
      <PointData>
        <DataArray Name="mass" NumberOfComponents="1" format="ascii" type="Float32">1 1 1 1 1 1 1 1 1 1 1 1 1 1 1 1 1 1 1 1 1 1 1 1 1 1 1 1 1 1 1 1 1 1 1 1 1 1 1 1 1 1 1 1 1 1 1 1 1 1 1 1 1 1 1 1 1 1 1 1 1 1 1 1 1 1 1 1 1 1 1 1 1 1 1 1 1 1 1 1 1 1 1 1 1 1 1 1 1 1 1 1 1 1 1 1 1 1 1 1 1 1 1 1 1 1 1 1 1 1 1 1 1 1 1 1 1 1 1 1 1 1 1 1 1 1 1 1 1 1 1 1 1 1 1 1 1 1 1 1 1 1 1 1 1 1 1 1 1 1 1 1 1 1 1 1 1 1 1 1 1 1 1 1 1 1 1 1 1 1 1 1 1 1 1 1 1 1 1 1 1 1 1 1 1 1 1 1 1 1 1 1 1 1 1 1 1 1 1 1 1 1 1 1 1 1 1 1 1 1 1 1 1 1 1 1 1 1 1 1 1 1 1 1 1 1 1 1 1 1 1 1 1 1 1 1 1 1 1 1 1 1 1 1 1 1 1 1 1 1 1 1 1 1 1 1 1 1 1 1 1 1 1 1 1 1 1 1 1 1 1 1 1 1 1 1 1 1 1 1 1 1 1 1 1 1 1 1 1 1 1 1 1 1 1 1 1 1 1 1 1 1 1 1 1 1 1 1 1 1 1 1 1 1 1 1 1 1 1 1 1 1 1 1 1 1 1 1 1 1 1 1 1 1 1 1 1 1 1 1 1 1 1 1 1 1 1 1 1 1 1 1 1 1 1 1 1 1 1 1 1 1 1 1 1 1 1 1 1 1 1 1 1 1 1 1 1 1 1 1 1 1 1 1 1 1 1 1 1 1 1 1 1 1 1 1 1 1 1 1 1 1 1 1 1 1 1 1 1 1 1 1 1 1 1 1 1 1 1 1 1 1 1 1 1 1 1 1 1 1 1 1 1 1 1 1 1 1 1 1 1 1 1 1 1 1 1 1 1 1 1 1 1 1 1 1 1 1 1 1 1 1 1 1 1 1 1 1 1 1 1 1 1 1 1 1 1 1 1 1 1 1 1 1 1 1 1 1 1 1 1 1 1 1 1 1 1 1 1 1 1 1 1 1 1 1 1 1 1 1 1 1 1 1 1 1 1 1 1 1 1 1 1 1 1 1 1 1 1 1 1 1 1 1 1 1 1 1 1 1 1 1 1 1 1 1 1 1 1 1 1 1 1 1 1 1 1 1 1 1 1 1 1 1 1 1 1 1 1 1 1 1 1 1 1 1 1 1 1 1 1 1 1 1 1 1 1 1 1 1 1 1 1 1 1 1 1 1 1 1 1 1 1 1 1 1 1 1 1 1 1 1 1 1 1 1 1 1 1 1 1 1 1 1 1 1 1 1 1 1 1 1 1 1 1 1 1 1 1 1 1 1 1 1 1 1 1 1 1 1 1 1 1 1 1 1 1 1 1 1 1 1 1 1 1 1 1 1 1 1 1 1 1 1 1 1 1 1 1 1 1 1 1 1 1 1 1 1 1 1 1 1 1 1 1 1 1 1 1 1 1 1 1 1 1 1 1 1 1 1 1 1 1 1 1 1 1 1 1 1 1 1 1 1 1 1 1 1 1 1 1 1 1 1 1 1 1 1 1 1 1 1 1 1 1 1 1 1 1 1 1 1 1 1 1 1 1 1 1 1 1 1 1 1 1 1 1 1 1 1 1 1 1 1 1 1 1 1 1 1 1 1 1 1 1 1 1 1 1 1 1 1 1 1 1 1 1 1 1 1 1</DataArray>
        <DataArray Name="velocity" NumberOfComponents="3" format="ascii" type="Float32">0.111234615798755 -10.034210425663851 0.000011310770788 0.060806396364174 -9.93605972057852 0.000002369731319 -0.071209548195255 -9.884135958220392 -0.000003175238812 -0.171899513354569 -9.958246161785416 -0.000008100201481 -0.040017151622484 -9.772169738595428 -0.00001631447881 -0.227189716779233 -9.977450285538456 -0.000025921565684 0.086636401266398 -9.861307793924256 0.00000530556518 -0.103263114208568 -9.969268978638482 -0.000009055517674 -0.035829490936647 -9.969704271193626 -0.000013651881034 -0.111388483006423 -10.032214357481566 -0.000011203172991 0.004732201794821 -9.875814287012755 -0.000018037504472 0.084488736833168 -10.152575095930038 0.00000652719529 0.222424623506949 -9.960547054838779 0.000015660779144 -0.000643954670584 -9.95283854231371 -0.000002764637839 -0.074990138345968 -9.902019457961826 -0.000010018431162 0.015422625722586 -9.844810223115497 -0.000000744019864 -0.022798976173687 -9.91074263069016 -0.000002008514022 -0.132850772522484 -10.089946823714181 -0.000014868907041 0.005413845220411 -10.085999075250513 -0.000006689657239 -0.106203651622679 -9.944035505631746 -0.000000495063387 0.078692618768355 -10.030467180215416 0.000005163278287 -0.006950445183345 -10.071418083011178 0.000007004414677 -0.170509516390307 -9.970780263233161 -0.000019551313415 -0.064104178314201 -9.866862773844419 -0.000002848964776 0.015566348668601 -9.792184747426862 0.000009930393136 0.003858120579706 -10.05610387731725 -0.000000284654291 -0.01055841594484 -9.926537703469066 -0.00001033748152 0.031926427819871 -9.985872697274445 0.000004182629214 -0.089124431969096 -9.899780170085425 -0.000017228670344 0.131723055495057 -10.142979468735399 0.000013780761734 0.050566383203379 -10.083811986403106 0.000006339328584 -0.01594304512541 -9.899158727332258 -0.000011537525402 0.097407426773903 -10.049770735550538 0.000011032437897 -0.024244144952139 -9.96476829623631 -0.000010361715136 -0.107407373768927 -9.866316992462057 -0.000009846865481 0.052894027235804 -9.989611513745093 0.000001155958736 0.039706362602731 -9.909383101187611 0.000012524251135 -0.011112032962415 -9.922188752666914 -0.000005863499109 -0.039479475519148 -9.87803236424876 0.00000119944989 0.026454592866074 -9.941163462769607 0.000006006335047 -0.009231494046961 -10.14944494179538 -0.000001425333927 0.194090825093296 -10.093379878991508 0.000022081298571 0.079944063945659 -10.146360144480328 -0.000000395948732 0.101149381966727 -10.068120967799665 -0.000001033641232 -0.029009803889304 -10.150070167455844 -0.000006032748486 -0.083410565125559 -10.059455132399249 -0.000004528955117 0.141754503369924 -10.209473613648433 0.000008936267616 -0.002816463184091 -9.839115900601721 0.000009546822651 0.153818543466815 -10.097558163420699 0.000016866114441 0.133894426064511 -10.070201995619346 0.000018982938886 -0.076360925341918 -10.099134255297844 -0.000002127565686 0.049395277118463 -10.149092952376868 0.000001591041267 -0.070399997403995 -9.953185838632631 -0.000012482007834 -0.035056516794522 -9.972776439645084 0.000002119833732 -0.069386247356706 -9.949550382877886 -0.000006326164258 -0.066208952459119 -9.996660086598014 -0.000003603637572 -0.067233009590857 -10.053929464556209 -0.000010406579486 0.08340070089768 -9.934655712912457 0.000012875284879 0.007578514170242 -9.979553472467719 -0.000002958536875 0.068775210681996 -9.870048134156661 0.000013208181486 0.003928088720828 -10.087837986704219 -0.000009163554146 -0.015906056822704 -9.862443463830871 -0.000013403179202 0.043825387431945 -9.847821026240251 -0.000001702123972 0.035922159012308 -10.121670165210697 0.00000356937187 -0.111958068521204 -10.035880322638208 -0.000008735550103 -0.205448333068075 -9.923908287401769 -0.000010306485927 0.223076172848496 -10.132672932188402 0.000026316261017 0.029765937827447 -10.063188965854586 0.00001106467869 0.019273602925273 -9.83949901735182 -0.000003887658414 0.02038810761632 -9.900333321723778 0.000007520858048 0.135396583928371 -9.929549923198 0.000020699882059 0.006974572166951 -9.993662934098884 0.000005232885943 0.209485502013038 -10.003500937793996 0.000027755534589 -0.034891427761994 -9.965985547819969 -0.00000228036665 0.074669014871422 -10.125485769799015 0.000002005449391 0.061609699956564 -10.128642777198365 0.000006689110267 0.115390481038262 -10.105191128976703 0.000013344546981 -0.07220746565156 -10.113038254705152 -0.000010864499629 -0.064447975945076 -9.979983538160667 -0.000007482780026 -0.119295823239839 -9.935029526934795 -0.000013863068634 0.001093818533392 -9.95181110482155 -0.000003075616904 -0.175059287145858 -9.963012158117987 -0.000021501262805 0.033814475864182 -10.05943850826622 -0.000004849566809 -0.075463954562656 -9.755587487261391 -0.000002291781215 0.066536504128189 -10.007255939147456 0.000009722864751 -0.043703486799744 -9.907174723597027 -0.000003685666904 -0.168952610875527 -9.892966418726889 -0.000016217554776 0.062341576449297 -10.049976245281091 0.000005605452529 0.203257327415461 -10.019479096715271 0.000026523310148 -0.017851414509376 -10.194363551769221 0.000004001050767 0.057717739319897 -10.084009408462602 0.000013174813511 0.011613253843753 -10.049795738331436 0.000002702196878 -0.07404604920349 -9.82579175379367 -0.000009431886602 0.141406520852427 -9.888329195324266 0.000016165440669 -0.052015124291992 -10.106975744205913 -0.000017667537031 0.136189470357806 -9.841653601408323 0.000017725973467 0.119356825705833 -10.088657386539898 0.000005699437009 0.064952159244448 -10.080201356268585 -0.000000312442772 0.053105821948353 -9.976974249841156 0.000003520210222 0.079513904359087 -10.125738564245921 0.000008992317182 0.006824126867837 -10.086650521117571 -0.000008854269423 -0.035892755853001 -9.943798296737056 -0.000012252822692 0.027923094227656 -10.060664849262945 0.000002059157161 -0.082585104921195 -10.029413671572613 -0.00001809194462 0.151495467644682 -9.816522335211763 0.00001046465217 0.097510156834576 -10.123503239579764 0.00000779722654 0.095673299121326 -10.073050052153926 0.000011252228401 -0.056583945969889 -10.102970749332055 -0.000005329939368 0.098364194652862 -10.050496015082933 0.000009694034713 -0.131756782517372 -10.026846096196538 -0.000015451810575 0.102560057276716 -9.923018433992034 0.000009692528781 -0.073978912665493 -9.963892291970053 -0.000008229788287 -0.056137253599628 -9.867674143336858 0.000001246801769 0.039895506986628 -10.032473287032913 -0.000001755058568 0.142210967935689 -9.976287682442118 0.000027657435581 -0.028179239449469 -9.943947144706852 0.000002423390519 -0.006674628774653 -9.726501040908488 0.000007595566981 -0.075808059317956 -10.050425709398704 -0.000006498072532 0.112348496531411 -10.002417477214884 0.000013172692192 -0.012331003388701 -9.881700810782322 0.000000055607352 -0.003598619179835 -10.188325845752207 -0.000002054582117 -0.095583199945951 -9.942974680020267 -0.000011257446383 0.042470665221973 -10.073369306764191 -0.000000746683622 0.250423449937146 -10.012462324863879 0.000018153450095 0.076181100211663 -9.949810122758443 0.0000017001529 -0.060896713640156 -10.052455046172099 -0.0000092726772 -0.000415326905398 -10.105001281064851 -0.000005934430137 -0.094092654081711 -10.036242875034578 -0.000005740756393 -0.019930838457848 -9.951087555306602 -0.00000591816241 0.076502231633053 -9.977513019325368 0.000006454506976 0.040142330426437 -9.961913855663653 0.000004311128046 -0.00500603016678 -10.210098812736053 0.000001882312964 -0.108765295795009 -9.836881401366059 -0.000028285815167 0.065688470370254 -10.1455108596603 0.000012065616994 -0.078801962294281 -9.970372471918829 -0.000023574816473 -0.089694941213874 -10.138965355016706 -0.00000392211848 -0.026719042318473 -10.064769877335888 -0.000010183147611 -0.01174369195433 -9.93001107646746 -0.000004727084377 0.056053987638967 -10.157151905356201 0.000001137641952 0.072645104444617 -9.880406149367094 0.000017287947343 -0.004503184120949 -10.1227919975713 -0.000002456192811 0.08820320327118 -9.971248308450713 0.000019923616852 0.008854491978632 -10.145911827283612 -0.000004620984229 0.159239403116663 -10.203690637636342 0.000026803668366 0.11538829208862 -10.036915639802912 0.000009022270665 -0.11461175278659 -10.077973788203296 -0.00000718796634 0.135162452034443 -9.918623363226374 0.000009288839539 0.069987178386061 -9.932478815571507 0.000009960332219 -0.03461943140928 -10.064350106695356 -0.000002903912016 0.06792256423826 -9.959166925244464 0.000008355885676 -0.061960575975359 -10.006893291794293 -0.000015575864433 -0.146879687901026 -10.014999483644745 -0.000006694777612 -0.081673535109896 -10.02192214124236 -0.0000070129573 -0.129389937189874 -9.903445355521207 -0.000009795969967 0.025437927848087 -10.02444597870242 0.000006961131383 -0.022396609765094 -9.851695215638646 -0.000007805133701 0.183191043168185 -10.054327354050576 0.000016986533497 -0.096404223014365 -9.977400215156852 -0.000018647459922 0.249588081749474 -9.905335590016556 0.000022982967633 0.118547529307047 -10.171920310952059 0.000004253788905 -0.033512821329634 -9.933430224234657 -0.000012032858499 -0.009089059695908 -10.12784076846399 -0.000003592889509 0.237675974633977 -9.944213432940668 0.000023549036554 0.169241084019275 -9.863823066896781 0.000016023602706 -0.05105913392338 -9.936947224001059 -0.000014167697523 -0.010257334199474 -10.153564233015512 0.000007700232116 0.084838939756841 -10.053945388304479 0.000005856736193 -0.03255614032068 -9.914228251190291 -0.000006624591638 -0.052690201434508 -9.893742038421562 -0.000023607106627 0.009124068917591 -10.026262576991799 0.00000185722172 -0.072410221018891 -9.917149560895156 -0.000022875940159 0.040417415458592 -9.892426584626087 0.00001116785045 -0.070762797264398 -10.102484212263485 -0.000013527356921 -0.124242993405268 -9.953628389604697 -0.000016745791846 -0.072236398779742 -9.967954436070041 -0.000006011450305 0.091439221819152 -9.929111756114837 0.000007179596147 -0.128885156627902 -10.042436945138832 -0.000011810145251 -0.182331117643803 -10.065149760598995 -0.000013873564407 -0.13491088737548 -10.057284038579544 -0.000023900080129 0.011456760810276 -10.120331480156006 0.000005276393367 0.003422709796655 -10.030280601626552 -0.000027226123937 -0.148918899972377 -10.145926422955521 -0.000034924291065 -0.088610928511124 -9.894151675515356 -0.000057124724071 -0.128247444771501 -9.918211494136811 -0.000074012985806 0.010046710335776 -9.924561185941494 -0.000084521242883 0.058584898207058 -9.896456643194494 -0.000088233557765 0.112790755863584 -10.106568140523077 0.000010855980558 0.011607797763129 -9.879724295200372 0.00000907993629 0.127229130087833 -9.847100759553703 0.000014749567024 0.046368041323467 -10.24778238275398 0.000002492641952 -0.086540496455615 -9.862737516511602 -0.000014757347514 0.102775583281594 -9.939886723693139 0.000011771032065 -0.042267581407748 -9.981810987973324 -0.000005912641937 -0.11861225037373 -9.955010827766145 -0.000013710727632 0.175742883941093 -9.94050339481997 0.000028136964286 -0.088118443285968 -10.1075954610195 -0.000013246292201 0.039764666592104 -9.908553485638507 0.000006909504159 -0.104309691840959 -10.052076164729145 -0.000007572206389 0.035026763699577 -9.920768546231683 0.000001626668723 0.108213693253963 -10.131556318464714 0.000009561806384 0.012702354873547 -10.010160362346259 -0.000001444922765 -0.122846942511421 -9.998732861195714 -0.000021224384945 0.095544468369545 -9.949109816122071 0.000009445425749 -0.079974193489757 -9.844149313290995 -0.000009895315194 0.107904657873914 -9.98601231342237 0.000014585070395 0.010527619979192 -9.980418637046393 -0.000003063821667 0.008690829337246 -9.926899214431405 -0.000000296067129 -0.031714646775737 -9.702669288627501 0.000003993358704 0.124343761224497 -9.96255501128158 0.000010189972319 0.046287377764815 -10.018077675227385 0.000016743328891 0.099588061686331 -9.976166393975857 0.00001912236717 0.068479117319382 -9.871625053118425 0.000026754562968 0.063228552880996 -9.932419911785081 0.000025922730311 -0.148350390777131 -9.936631769498323 0.000045344643226 -0.011118364684596 -10.123945648084886 0.000051807899457 0.031560984597525 -9.966930986115347 0.000095455171827 0.082793102277091 -9.957912170911785 0.000095653050999 -0.138143842352231 -9.823639641112271 -0.000021659279596 0.113562513952334 -9.829624653373408 -0.000002502164776 0.012827614300363 -10.116393374922898 0.000007236608101 0.007750672400196 -10.045516642309638 -0.000013046445347 0.189780260319069 -9.983054027513909 0.000012245448372 0.127410017512688 -9.994392086422804 0.000009688967178 -0.100961173875661 -10.002685264784464 -0.00002105999411 0.001453731723589 -10.063707905838339 -0.000011467481095 0.118893092099719 -10.043547110974776 0.000005104228973 0.209752441749383 -10.072911053647303 0.00002488731805 -0.108304862700009 -10.026263262413176 -0.000013505517897 -0.147498193553093 -10.054494420787885 -0.000019733423454 0.030476819455669 -9.870980188488641 0.000004024484819 0.214417033429374 -10.137671776519566 0.000015297332087 -0.000852087743635 -9.981362229051618 -0.000002291149687 0.17038813015537 -9.882648184378787 0.000016212005899 -0.068577713016468 -10.069098977608784 -0.000006317020829 0.020439170360185 -9.933421221874752 0.000004855435112 0.168912119517696 -10.026358863024599 0.000020437698772 -0.020122613096512 -9.885311573919862 0.000005494612378 0.033438572967312 -9.977728625238154 0.000004095072772 -0.202622816361297 -9.955266416432959 -0.000024792902707 -0.150990002271005 -10.012011814091158 -0.000007770799433 0.063976750460452 -10.004732030746364 -0.000007983793166 -0.132930728807926 -10.017558647581554 -0.000025094587221 0.073346908333102 -9.930897125731262 -0.000128027976602 0.041189469866366 -10.024020911984724 -0.000135292594649 -0.17006063770676 -10.101278600338887 -0.001966392473148 0.198629660248679 -9.817227682404766 -0.001934922664836 0.038165052314439 -10.124725814233537 -0.008848798209453 -0.043812323592045 -10.215536115145346 -0.008856496556299 0.023879742751189 -9.935627286038013 0.000000982500421 -0.130509700331156 -9.951834662823707 -0.000010001313723 -0.05057939482911 -10.119873442673203 -0.000011502300356 0.173955416372475 -9.890170847252403 0.000017257628677 0.167555259850672 -9.909167269779809 0.000026379240149 -0.067435363270146 -9.990399261641464 -0.000014151361436 0.038232375675639 -10.154158324586367 0.000009914621066 0.051952231614754 -9.861520026883671 0.000007111783059 -0.126845582323441 -10.020287252848817 -0.000019117936639 -0.006020237467263 -9.855333529249638 0.000009703433019 0.009644521261555 -9.967834294714459 -0.00000117228588 -0.080027880113349 -10.047743679920234 -0.000008691873555 0.08664084938683 -10.030475677345395 0.000005369454552 0.042305867834194 -9.973860114274805 0.000000561073109 -0.018770792231862 -10.17562121006754 -0.00000594478068 0.096483249411642 -9.967622633225727 0.000012248171424 0.019631018209039 -9.962266328588129 -0.000001006240968 -0.08474355030377 -10.05835463795338 -0.000002738885333 -0.050409112363139 -10.044852611380495 -0.00001413864345 0.043800449244393 -10.111955792069383 0.000005066998657 -0.045313556195893 -10.03311571225416 -0.000002397726122 -0.054081922267849 -9.790127611775381 0.000004274605856 0.017653904471262 -10.066453856126643 -0.000003501049364 -0.248714929533571 -10.008104215958724 -0.000010138401976 -0.053654146780799 -10.174750693354881 0.000007379543087 -0.018044067597606 -9.971245314145767 0.000140489286928 0.028452275146777 -10.131705550682403 0.00013941409949 -0.047058000519086 -10.011001018906736 0.001952961927574 0.074067306694416 -9.938160978350917 0.001966107264652 -0.045014737262944 -10.003129457864997 0.008848095579298 -0.100388285214744 -9.935055677168439 0.008844096537349 0.121070040844635 -10.10419728592904 0.000018799901698 0.080231241873036 -9.969886764985301 0.00000629145406 -0.014440978152544 -10.040882738696103 0.000001421367367 0.061014019485958 -9.930787298086033 0.000005544180958 0.116011246260002 -9.894227900339656 0.000013510371037 0.061739667284556 -10.028474108904279 0.000005635068758 0.103087710960047 -10.082224426709031 0.000013269551488 0.05105006056551 -10.051287999179719 0.00000134858422 0.012169797457659 -10.059676945553848 0.000001415693909 -0.039368324525018 -10.056102242070226 -0.000018341114205 0.012716306345361 -10.063139274843964 -0.000001512427541 -0.021341831627625 -10.167302056301091 -0.000003810537315 0.031270893140351 -10.118471584877662 -0.000002902992862 0.254034960196065 -10.071158076055223 0.000020614804006 0.081326897774521 -9.748507223294441 0.000005113131 0.074104002636384 -10.088671341690485 -0.000001367399702 -0.13618563036105 -9.922761780606931 -0.000013835480211 0.002754399339039 -10.034983203777788 -0.000009836861604 0.056092404333879 -10.019871499869746 -0.000003963362248 -0.1447886378749 -9.988804759052879 -0.000016582997164 -0.083533813961377 -10.162466428688544 -0.000020424682157 0.136744554668875 -9.890126104217774 0.000023119188863 -0.041080076787842 -10.167098120831918 -0.000006446779922 0.123777368808157 -10.101444452330897 -0.00000013908327 -0.075493614951383 -9.931672810757707 -0.000020267739794 -0.11266207868173 -9.916510391130878 -0.000160110040516 0.107017919733199 -9.967513284464957 -0.000131676945565 -0.124961074067714 -9.888240514116557 -0.001975200460355 0.007254442936519 -9.876644233303749 -0.001962734065985 -0.085820830971128 -10.083498477082715 -0.000006715601856 -0.079410000122498 -9.997267237109766 -0.000007949687439 0.088061693312153 -9.975167508693415 0.000008573289313 0.0127078378599 -9.868659106831647 -0.000012062911643 -0.138768404489825 -10.124049841345331 -0.000025972577199 -0.019872285267877 -10.000336605881959 -0.000008692556946 -0.10287504080125 -9.897097436253283 -0.00001605212368 0.133471330997812 -9.996931742889579 0.000010559812966 -0.006281846843977 -10.081229486692653 0.000010356952544 -0.13834877222936 -10.007197151186693 -0.000008560179159 -0.026947000263449 -10.016618901331016 -0.000003460679485 0.152141378320448 -9.919939932855078 0.000024551524711 0.012377435198557 -10.011035737686049 -0.00000313284311 -0.015131153137854 -9.838491165900393 -0.000007731670368 0.052661745052971 -9.842029849790004 0.000011411860413 0.01569147684085 -9.972777856439755 0.000000238623518 -0.015299314764121 -9.989031550295813 -0.000002587256031 -0.079809193699243 -10.092192653357358 -0.000006537564266 0.094844328450151 -10.085229439199622 0.000010473252502 0.021770403741205 -10.033984400040802 0.000012631852291 -0.106052156194737 -9.871791151239171 -0.000004939375668 -0.150253086214514 -10.226281998287556 -0.000001395468229 0.11481404476068 -10.130682924425031 0.000018646993019 0.027032077983697 -10.099583854004688 0.000027635453783 -0.070961997976483 -10.020821041577491 0.000012151858526 -0.087916719150086 -9.963092939485518 0.00014042537819 0.039263325603987 -10.135105009408873 0.000150598029222 0.206280261241353 -9.968847317440218 0.001985781432963 -0.013256760437811 -9.960360886307274 0.001961046742469 0.031905592865271 -10.04501024281786 -0.000002259284145 -0.056225160983859 -9.99839938949556 -0.000011384839767 -0.046276141616267 -10.132330559031011 -0.000008185506197 -0.016939958403977 -10.121246732162785 -0.000006020356355 -0.179558004434018 -10.061948363999891 -0.000027502052673 -0.106374683924215 -10.01112689276364 -0.000008628557982 0.1041876568124 -9.932775746179844 0.000010108515496 0.011004037952712 -10.130777696579495 -0.000006311947545 -0.167590257447707 -9.856658868413279 -0.000022815477308 0.096436520333122 -9.860910703975058 0.000012939670037 0.098245354083243 -10.232068607364246 0.000002971792625 0.124593991903614 -9.96998494442289 0.000019533847973 0.124496275522905 -10.054365580871234 0.000013654606983 -0.023606165221436 -10.080170958677281 -0.000013345550842 0.12199396478602 -10.044548521150968 0.000011570882347 0.002578508507911 -9.99547062659169 -0.000008118221526 0.028167391560853 -9.973102561920845 0.000014436180336 0.139441746434505 -9.911960005179214 0.00001578215983 0.030173512309178 -9.767420087810194 0.000000862810298 0.00828207088925 -9.728833027985003 0.000006295673672 0.144244010037964 -9.943586073068527 0.000018265863515 -0.065180024702864 -9.940326148654197 -0.000019977465778 0.070344490983193 -9.952019169760515 0.000007043563891 -0.102589856832594 -9.946387000772139 -0.0000336738676 -0.031593218207377 -10.066239708584282 -0.000016093926804 -0.015501250662046 -10.176671248958881 -0.000066427494554 -0.090609995862881 -10.061952004943675 -0.000083328341 0.015239619456873 -9.962498199851369 -0.000135642813948 -0.153249189265061 -9.990458151588539 -0.000149251176231 -0.07601011188387 -10.043308153938423 0.000006196540079 0.08375232833339 -9.802039981738718 0.000012350698774 0.047497182933657 -10.033896991318022 0.000004491873102 0.146721669808058 -9.89072248809082 0.00001183103354 0.043850037681767 -9.958794021140154 0.000012532284484 0.134398793790515 -9.825579059016487 0.000015674937795 0.072389939508204 -9.924887761703665 0.000012773578783 -0.020552227773502 -10.040257821738519 -0.000004785358031 -0.109338013786368 -10.047632547334604 -0.000015307073411 -0.097560100299473 -10.207157188006173 -0.000011211037135 0.027800474079218 -10.075228407171871 0.00000015746954 -0.038377511488983 -9.919064988599853 -0.000015164726212 0.023344354858819 -10.085963866101638 0.000000313819084 0.075290048253358 -9.938761780524224 -0.00000091242862 -0.126625822021985 -10.166383111946091 -0.000015650527339 -0.069881427630896 -10.150080041240422 -0.000003402266274 0.015627392014921 -10.067720752429176 -0.000003579820671 0.089353102860991 -10.015475312082669 0.00001983068586 0.076212925284977 -9.965342541824421 0.000003898703349 -0.24782790375267 -10.178134665917673 -0.000017495142177 -0.073295927509731 -10.097092037697701 -0.000004366247252 -0.152421675777626 -9.954352658096933 0.000004144895595 -0.038263203366208 -10.072038531763143 -0.000000634924516 0.165909764674059 -10.013417437071157 0.000040577856569 -0.00636971504683 -10.138559503623892 0.000026160515835 -0.058162873661602 -10.090376963949771 0.000058091120266 -0.060805748527801 -9.909254343556839 0.000067458633972 0.107246865761091 -9.872640767205734 0.000141882040232 0.043619275198576 -9.792205926516278 0.000148834386109 -0.013323815960873 -9.872365310768512 -0.000005996022171 0.059560011930269 -9.967784002280352 0.000013092451462 -0.039342968791673 -10.126957292436741 -0.000003174371008 0.025886186242187 -10.026276938668053 0.000005548353563 0.117803904194237 -10.119071002606386 0.000017423999285 -0.211002559148289 -9.955295083547863 -0.000019084904346 -0.064538321984484 -9.788882232649399 -0.000008364030899 0.177874858489513 -10.032680828120299 0.00001533298038 0.001515376286637 -10.017906704805503 0.000004607067844 -0.061211085702232 -10.08133456619673 -0.000006199154962 0.183280026927016 -10.052959118948937 0.000016245218274 -0.12166588362493 -9.929995424628231 -0.000016468979225 -0.118277267909757 -10.063408287723201 -0.00001658657232 0.052739307211952 -10.26985410283303 0.000005439192998 -0.014595399907056 -10.041935275813707 -0.000013716934326 0.017934566024508 -10.181701998907306 0.00000149572399 -0.109572728408001 -10.048002810508365 -0.000013541783086 -0.019564251389677 -9.887221044497618 -0.000002669943541 0.066996240469486 -9.895711511519169 -0.000005012705906 -0.032008417271274 -10.100794293861272 -0.000004472596482 -0.016891748391274 -10.090706870526244 -0.000016796373424 0.008816698984934 -9.959291475307042 -0.000012468147923 -0.045583119053215 -9.959443462356747 -0.000019175190524 -0.16103140072357 -10.09001635518268 -0.000155583993531 -0.240312265062308 -9.824721642862912 -0.000175323899866 -0.053175043808423 -10.012897057740112 -0.001971411865399 -0.06343004076953 -10.0502151238185 -0.001976303639653 0.120110163346544 -9.949041834787678 -0.008853375514926 -0.087345711031137 -10.001308952547284 -0.008859614446458 -0.232643380248224 -10.102163939292515 -0.000026511239093 0.034594224944653 -9.886340115092693 -0.000003842936008 0.029302362241633 -10.137877205083623 -0.000004222481364 0.104274058608974 -9.940590696895359 0.000001919724065 -0.05051430635735 -10.23446273682417 -0.000010626971608 -0.019517647182517 -9.94084633957133 -0.000007999720167 0.000336529476987 -10.019754851585468 -0.000009562841307 -0.087590431913786 -10.059670975555994 -0.00001055261719 0.074098030706878 -10.138073234641373 0.000008127444231 0.131180988017687 -10.088011392943539 0.000015856751228 0.067463283649943 -10.039021417593517 0.000001501171464 0.057779473677855 -9.808728723840495 0.000006489372514 0.044409447663516 -9.987963177576827 -0.000000098135448 0.195523298494758 -10.09477877706245 0.000024228117098 -0.020485247093795 -9.936289158229693 -0.000005476680897 -0.046636989517855 -10.027379456095574 0.00000513088073 0.091601032032543 -10.063242857446538 0.000007190947414 -0.080863518196827 -9.940971202336231 -0.000002003104727 0.03327580558115 -9.934711369983148 0.000000836804404 -0.108821460031461 -9.953161276618985 0.000010921558033 0.038302573369419 -9.919404475178338 0.00000629604537 -0.172781369258699 -9.963362380924544 0.000005691855059 -0.031879052966865 -9.969354062099532 0.000009845153042 -0.025676150942322 -10.036630292661899 0.000133576387962 -0.014509303595362 -9.887939516884709 0.000154019800858 0.224295126397808 -10.191653469403493 0.001995762442111 -0.010027062753418 -9.947893907119512 0.001975325987058 -0.037338321762104 -10.050297524374475 0.008854508854939 -0.120755349775317 -10.065686704646145 0.00885253183902 0.070452935208125 -9.978597284801266 0.000008056740444 -0.154237205426678 -9.866024466728938 -0.000018087234359 0.033698445701924 -10.234007136198747 0.000005618603772 0.001841371673638 -9.805663916868367 0.000002430630037 0.09315552532213 -9.849568122058702 0.000006598033823 0.00491401339852 -9.903507702973442 0.000003007846534 -0.113536223308122 -9.923101860327641 -0.000021579439278 0.175629510781673 -10.027876561605527 0.000008237376239 0.050413418358095 -10.056457293081822 -0.00000073389254 -0.123891847953767 -10.117387241740101 -0.000014184328624 0.048162216239735 -10.110922280427838 -0.000006432875608 -0.106472145362961 -10.024365521290989 -0.000009116333208 -0.12856082600437 -10.05123561479612 -0.000011934975223 0.033299230204166 -10.04451114375291 0.000008210103342 0.166653270083173 -9.979320627324975 0.000018643805658 0.015377818846456 -10.16351953629542 0.00000536883789 -0.151275314198283 -9.977115423983385 -0.000013562452172 -0.146590412672018 -10.046001088671616 -0.000016353138429 0.170267240791408 -10.016543402665675 0.000003769961559 -0.089219092969384 -10.008171054496152 -0.000013733831825 0.080166260051372 -10.133547131730587 -0.000009792799587 -0.089954421881509 -10.069872646190017 -0.000053596382307 -0.221026532455934 -10.178320144891 -0.00007104492593 -0.168225386972817 -9.928333304921933 -0.000204872416925 0.106393369740629 -9.994378037935373 -0.000180112570287 0.014474962911356 -9.998441892743591 -0.002044763659698 0.123988372426078 -10.042570057182989 -0.002025976520357 0.017706058801167 -10.201659039225534 0.000006288426932 0.076169948478978 -9.86685418806074 0.000006649717218 0.111357049660865 -9.989995431228357 0.000004093564312 0.018457650227096 -10.087312527191992 0.000008909286187 0.033481767818971 -10.013026930739651 0.00000351956183 0.009164176083454 -10.054691618603648 0.000001248929768 0.148392759498132 -9.990942493532716 0.000013268030116 0.076388869855888 -10.013260797616482 0.000008261277288 0.0359259774885 -10.045546403341392 -0.00000012796339 0.076449630879314 -10.099172995422544 -0.000002704226887 0.133036377513162 -10.01149154701567 0.000016406046249 0.011436911589767 -9.854274171924249 0.000006062069664 0.04820978255985 -10.176138177217268 0.000005415783956 -0.061100843033425 -10.073820237949374 -0.000009817902766 0.146170408744432 -9.925765191368098 0.000024308097089 -0.106122893089711 -9.934537933847423 -0.000008603188116 0.094312107684359 -9.903523153988166 0.00000856385838 -0.136025793246445 -9.898211376989421 -0.000008895768292 0.036585181291547 -9.9538026929