<?xml version="1.0" encoding="UTF-8" standalone="no" ?>
<VTKFile byte_order="LittleEndian" type="UnstructuredGrid" version="0.1">

  <UnstructuredGrid>
    <Piece NumberOfCells="0" NumberOfPoints="801">
      <PointData>
        <DataArray Name="mass" NumberOfComponents="1" format="ascii" type="Float32">1 1 1 1 1 1 1 1 1 1 1 1 1 1 1 1 1 1 1 1 1 1 1 1 1 1 1 1 1 1 1 1 1 1 1 1 1 1 1 1 1 1 1 1 1 1 1 1 1 1 1 1 1 1 1 1 1 1 1 1 1 1 1 1 1 1 1 1 1 1 1 1 1 1 1 1 1 1 1 1 1 1 1 1 1 1 1 1 1 1 1 1 1 1 1 1 1 1 1 1 1 1 1 1 1 1 1 1 1 1 1 1 1 1 1 1 1 1 1 1 1 1 1 1 1 1 1 1 1 1 1 1 1 1 1 1 1 1 1 1 1 1 1 1 1 1 1 1 1 1 1 1 1 1 1 1 1 1 1 1 1 1 1 1 1 1 1 1 1 1 1 1 1 1 1 1 1 1 1 1 1 1 1 1 1 1 1 1 1 1 1 1 1 1 1 1 1 1 1 1 1 1 1 1 1 1 1 1 1 1 1 1 1 1 1 1 1 1 1 1 1 1 1 1 1 1 1 1 1 1 1 1 1 1 1 1 1 1 1 1 1 1 1 1 1 1 1 1 1 1 1 1 1 1 1 1 1 1 1 1 1 1 1 1 1 1 1 1 1 1 1 1 1 1 1 1 1 1 1 1 1 1 1 1 1 1 1 1 1 1 1 1 1 1 1 1 1 1 1 1 1 1 1 1 1 1 1 1 1 1 1 1 1 1 1 1 1 1 1 1 1 1 1 1 1 1 1 1 1 1 1 1 1 1 1 1 1 1 1 1 1 1 1 1 1 1 1 1 1 1 1 1 1 1 1 1 1 1 1 1 1 1 1 1 1 1 1 1 1 1 1 1 1 1 1 1 1 1 1 1 1 1 1 1 1 1 1 1 1 1 1 1 1 1 1 1 1 1 1 1 1 1 1 1 1 1 1 1 1 1 1 1 1 1 1 1 1 1 1 1 1 1 1 1 1 1 1 1 1 1 1 1 1 1 1 1 1 1 1 1 1 1 1 1 1 1 1 1 1 1 1 1 1 1 1 1 1 1 1 1 1 1 1 1 1 1 1 1 1 1 1 1 1 1 1 1 1 1 1 1 1 1 1 1 1 1 1 1 1 1 1 1 1 1 1 1 1 1 1 1 1 1 1 1 1 1 1 1 1 1 1 1 1 1 1 1 1 1 1 1 1 1 1 1 1 1 1 1 1 1 1 1 1 1 1 1 1 1 1 1 1 1 1 1 1 1 1 1 1 1 1 1 1 1 1 1 1 1 1 1 1 1 1 1 1 1 1 1 1 1 1 1 1 1 1 1 1 1 1 1 1 1 1 1 1 1 1 1 1 1 1 1 1 1 1 1 1 1 1 1 1 1 1 1 1 1 1 1 1 1 1 1 1 1 1 1 1 1 1 1 1 1 1 1 1 1 1 1 1 1 1 1 1 1 1 1 1 1 1 1 1 1 1 1 1 1 1 1 1 1 1 1 1 1 1 1 1 1 1 1 1 1 1 1 1 1 1 1 1 1 1 1 1 1 1 1 1 1 1 1 1 1 1 1 1 1 1 1 1 1 1 1 1 1 1 1 1 1 1 1 1 1 1 1 1 1 1 1 1 1 1 1 1 1 1 1 1 1 1 1 1 1 1 1 1 1 1 1 1 1 1 1 1 1 1 1 1 1 1 1 1 1 1 1 1 1 1 1 1 1 1 1 1 1 1 1 1 1 1 1 1 1 1 1 1 1 1 1 1 1 1 1 1 1 1 1 1 1 1 1 1 1 1 1 1 1 1 1 1 1 1 1 1 1 1 1 1 1 1 1 1</DataArray>
        <DataArray Name="velocity" NumberOfComponents="3" format="ascii" type="Float32">0.11126815007045 -10.032782049180049 0.000061607676349 0.060809939208161 -9.936766851598559 0.000012905224208 -0.071215914433855 -9.884363129263713 -0.000017286425373 -0.171921759465483 -9.958214836839243 -0.000044084779856 -0.040069326103724 -9.773326988806629 -0.000088852239544 -0.227268328069874 -9.977294208846553 -0.000141133216124 0.086650684350266 -9.861403657013872 0.000028883133171 -0.103287412613697 -9.969658630102519 -0.000049335936909 -0.035870073906061 -9.968549763790381 -0.000074355962235 -0.111421479397813 -10.032561449634592 -0.000061026544374 0.004676736447636 -9.876837173191731 -0.000098238159146 0.084506643860806 -10.150761810974483 0.000035553951248 0.222472088142986 -9.959743702648572 0.000085262336447 -0.000653478252718 -9.953360087984985 -0.000015046038126 -0.075019621517568 -9.902406877840191 -0.00005460550293 0.0154219148167 -9.846854415033494 -0.000004068828891 -0.022804444521462 -9.911657089580329 -0.000010928905732 -0.132896516966532 -10.087700334663619 -0.00008086914104 0.005389406673325 -10.08469450112969 -0.000036393553201 -0.10620360484517 -9.945604009647518 -0.000002684776366 0.078709286430929 -10.030465362407405 0.00002809334385 -0.006930270801401 -10.069525963928466 0.000038163991948 -0.170569852874564 -9.97007195313493 -0.000106497644612 -0.064114507286137 -9.869148484838135 -0.000015518264257 0.015600207688212 -9.793913311389707 0.000054055108884 0.00385534190016 -10.05487131166279 -0.00000153291249 -0.010589365653872 -9.925368974526236 -0.000056352059551 0.031938817401664 -9.989787809924767 0.000022783466605 -0.08917776882217 -9.898379140180246 -0.00009381462853 0.131767817820349 -10.149871334691159 0.000075030818705 0.050584086284127 -10.074955943676786 0.000034535723527 -0.015978415089556 -9.900389891133836 -0.000062818426997 0.097442882047216 -10.047883099277339 0.000060078150444 -0.024279196782044 -9.964523774982402 -0.000056361240275 -0.107437494433279 -9.867616580210502 -0.000053541525889 0.052894895140477 -9.989091572786814 0.000006331896118 0.039745320296876 -9.908940782163752 0.000068159829589 -0.011127525499874 -9.92268727696784 -0.000031955403422 -0.03947571005688 -9.879774187255171 0.000006526852411 0.026475906198125 -9.941915006507568 0.000032731256516 -0.009238747673737 -10.14786356897573 -0.000007674728011 0.194155531041088 -10.092375292236749 0.000120314042195 0.079942174486648 -10.146397204502449 -0.000002150353622 0.101142733508994 -10.068227087443875 -0.000005604636946 -0.029022833901159 -10.150392710411984 -0.000032808810721 -0.083421433310987 -10.058229432284367 -0.000024585004618 0.141778398599348 -10.208499427922872 0.000048798284428 -0.002781582779956 -9.84167764053714 0.000052089665932 0.153866335272864 -10.098210063885235 0.000091933300851 0.133951637028995 -10.069345643422905 0.00010356078286 -0.07636477723049 -10.098291859740119 -0.000011281457152 0.049397996877631 -10.147630536185433 0.000008990883736 -0.070438854583954 -9.954014864076058 -0.000067352967063 -0.035050259998029 -9.973910825691469 0.00001210176557 -0.069403429518349 -9.950193291922067 -0.000033469730302 -0.066218750303311 -9.996118230201112 -0.000018644270666 -0.067261227522989 -10.053165518966154 -0.000055112927537 0.083442178413765 -9.934381252141048 0.000071654516677 0.007570562188184 -9.983198652310845 -0.000014004222023 0.068818510799556 -9.867762866121307 0.000074066449673 0.00389840958962 -10.095019684272154 -0.000047524003171 -0.015947307813644 -9.854702775861627 -0.000070553592349 0.043818779153351 -9.850469090442729 -0.000009298648788 0.035929547125012 -10.118964874109944 0.000019412505647 -0.111979072640937 -10.035377070123793 -0.000047605015809 -0.205475740982114 -9.925817940794033 -0.00005615672247 0.223155962187445 -10.130420079963903 0.000143282230281 0.029799162330105 -10.061459251463528 0.000060309220183 0.019256530866702 -9.841698537071171 -0.00002116495192 0.020409370188046 -9.901800311886955 0.000040979527676 0.135460895172042 -9.929444650789264 0.000112671647648 0.006993053411005 -9.992975242966828 0.000028460057147 0.209571758990641 -10.003764382974682 0.000151029169804 -0.034897513922524 -9.967098131164438 -0.000012453667591 0.074675621958946 -10.124693795373258 0.000010886583883 0.061629550975261 -10.12761061966668 0.000036366284569 0.115433375251376 -10.104602251625943 0.000072622730285 -0.072241157797944 -10.112105016076463 -0.000059302884688 -0.064472223494464 -9.980527862816896 -0.000040842131829 -0.119338967336075 -9.936199409860681 -0.000075738762803 0.001083279259759 -9.9525875762623 -0.000016914192009 -0.175125801201306 -9.961698802484147 -0.000117475647423 0.033796085430205 -10.058538384614495 -0.000026718099477 -0.075469111772369 -9.757651213314196 -0.000013059367313 0.066569996963965 -10.006877200309273 0.000052410830102 -0.043715108144907 -9.907150292299091 -0.000021064639204 -0.168999537869291 -9.894267810968495 -0.000089277276152 0.062357706811994 -10.050259390338109 0.000028981177377 0.203333446509103 -10.018879049177626 0.000142865905096 -0.017838517938317 -10.195325917244348 0.000019624562566 0.057756919689093 -10.079548519539321 0.00006960975849 0.011620300199642 -10.058408280717844 0.000012327095606 -0.07407866290422 -9.819498820900959 -0.000053727474315 0.141457407473356 -9.889306847872666 0.000088046320695 -0.052069782970359 -10.105643139571457 -0.000096138902901 0.136241393960083 -9.843251654866659 0.000096592848113 0.119373859465988 -10.088118418554412 0.000031028182016 0.064948672485338 -10.079128856111401 -0.000001659626184 0.053117499460764 -9.978229221473793 0.000019204418174 0.079544989765248 -10.124439499314375 0.000048992030545 0.006794529110554 -10.085870462918905 -0.00004811012826 -0.03592919280292 -9.945316292113644 -0.000066634620256 0.027930109288263 -10.059433122020868 0.000011279730303 -0.082638896460054 -10.029481294068511 -0.000098498088487 0.151524744816462 -9.819381309754526 0.0000570612063 0.097533109570289 -10.122841515113819 0.000042549817054 0.095706585124648 -10.071430979175327 0.000061432171211 -0.056601307429689 -10.102658202260683 -0.000028863512219 0.098395676138962 -10.049907746611957 0.000053048438602 -0.131802278717067 -10.026911129146251 -0.000083888000322 0.102590810699737 -9.923438572905534 0.000053248115756 -0.074000766217049 -9.964642521310893 -0.000044417716077 -0.056130866711666 -9.868624003837978 0.000007697987782 0.039886238327723 -10.031568696558885 -0.000008670729436 0.142298654889385 -9.974269017595153 0.000152452688414 -0.028173153308522 -9.945042503457776 0.000015065986569 -0.006649657245515 -9.729551118469042 0.000045355169496 -0.07582706443433 -10.048806679767591 -0.000031392222616 0.11239251433002 -10.002152433137082 0.000079899799518 -0.012324489896346 -9.882776106820089 0.000008474588923 -0.003598672586621 -10.189200709750398 0.000002694549539 -0.095607240217147 -9.94040269336441 -0.000047447228811 0.042478630659573 -10.081823594442159 0.000012839452772 0.25048844910827 -10.00425410270822 0.000115718289993 0.076184773989094 -9.951282614956641 0.000009209137632 -0.060925671530175 -10.051766496033483 -0.000050524125184 -0.000437147171711 -10.103224274217853 -0.000032271230184 -0.094108633753409 -10.036004693319789 -0.000031274843869 -0.019946769523059 -9.952034821767228 -0.000032244037621 0.076522572510164 -9.979195945082335 0.000035072670671 0.040159207644819 -9.96113402564376 0.000023401000676 -0.005002743718271 -10.208386826281147 0.000010193595614 -0.108855053910473 -9.838345180678425 -0.000154053637186 0.065724707397299 -10.145853118588743 0.000065615263729 -0.07887584075498 -9.970142271704441 -0.000128361805002 -0.089703676151586 -10.137815669224459 -0.000021454304078 -0.0267501112853 -10.064766060405177 -0.000055521941569 -0.01175784211273 -9.930915048979648 -0.000025898913207 0.056057970490076 -10.156445705079136 0.000006043293777 0.072699322148306 -9.881203223722045 0.000093873921672 -0.004508885852658 -10.123122093116402 -0.00001363081094 0.088261761052601 -9.972052544088021 0.000108074439326 0.008839199710519 -10.145147775820842 -0.000025614096305 0.159319680994624 -10.201662363164079 0.000145134885582 0.115414551380727 -10.036852531544366 0.000048261079583 -0.114632280775483 -10.077861385035931 -0.000040962090021 0.135189066728724 -9.92011560187799 0.000048731733077 0.070015499513503 -9.933510545449172 0.000050265217607 -0.034628276745122 -10.063130740650314 -0.000019804230222 0.067944808829511 -9.95959138965188 0.000037299253854 -0.062013688462228 -10.007040751935817 -0.000092941276164 -0.146907081337007 -10.016658355776297 -0.00005031818012 -0.081700426532532 -10.019272109443868 -0.00005205753011 -0.129432469191148 -9.911876836919054 -0.000070222560864 0.025449472280364 -10.01661910267819 0.000021001688424 -0.022424705173937 -9.853563531482099 -0.000042421844276 0.183242905970097 -10.052324134132656 0.000092516617628 -0.096458613463533 -9.977772732407452 -0.000101528480986 0.24966000502639 -9.906348363170254 0.000125201263851 0.118561645789178 -10.170584066255374 0.000023182842313 -0.03354933684216 -9.933325853899014 -0.000065436209435 -0.009102497232828 -10.126572258359454 -0.000019469902734 0.237748778464845 -9.94411822246856 0.000128320515038 0.169287438358556 -9.866965307324692 0.000087298854147 -0.051101426612236 -9.937661348525536 -0.0000769963031 -0.010227307313342 -10.150560471527115 0.000042026866014 0.084858489103177 -10.052357321522337 0.000032098767778 -0.032575584823971 -9.916243913808133 -0.000035922149645 -0.052766583084553 -9.894804644173753 -0.000128253791221 0.009126572427396 -10.024853300951019 0.000010375449467 -0.072480805254086 -9.918072856413902 -0.000124079505064 0.040451083039735 -9.893540754167528 0.000061241582302 -0.070802508749658 -10.100657691542535 -0.000072850672713 -0.124293601920494 -9.953133029273639 -0.000090273979703 -0.072253168344787 -9.969135076266461 -0.000030805296019 0.09146006469463 -9.930025676350986 0.000041015517644 -0.128915212240401 -10.042119432014495 -0.00005924670102 -0.182368607682665 -10.064671778399171 -0.000070409459596 -0.134975206936661 -10.05710766089641 -0.000113756026352 0.011481656138867 -10.120111472005078 0.00004507877617 0.003365402620547 -10.029930579221245 -0.000091400502649 -0.148993324909944 -10.144182344280184 -0.000133322457211 -0.088690329055206 -9.897744174375376 -0.000144283200952 -0.128381495039437 -9.916760281274481 -0.000236145287917 0.009934513486551 -9.932198315020775 -0.000198256623729 0.058458830636473 -9.888806967762719 -0.000218471995681 0.112822468112785 -10.103779201011161 0.000059037848558 0.011639336980555 -9.883139618720344 0.000049376993865 0.127274036543182 -9.848711835167423 0.000080270819888 0.046374567032864 -10.24391717293061 0.000013567906114 -0.086582933214499 -9.863306689617213 -0.00008047235932 0.102812323706531 -9.941706453109191 0.000064013563216 -0.042283784251454 -9.980909677333557 -0.000032263306899 -0.118651343634422 -9.955796238706041 -0.000074785226159 0.175827654517048 -9.940553882924034 0.000153147367708 -0.088160545397652 -10.106400679425738 -0.000072205427362 0.039783250370721 -9.908802584178156 0.000037543306085 -0.104335540494569 -10.052858740351326 -0.000041375639592 0.035031786721003 -9.921202108746101 0.000008689284391 0.10823902357047 -10.130347977900927 0.00005182403591 0.0126969010935 -10.009315919660505 -0.000008107013859 -0.122912022774512 -9.998610615577519 -0.000116017915974 0.095571763803099 -9.949664634775491 0.000051003817021 -0.080002161024931 -9.845813366617209 -0.000054723257324 0.107950791616679 -9.985461389438436 0.000078548249091 0.010518663473253 -9.978090426095491 -0.000018630287992 0.008691768092223 -9.927430681910277 -0.000003530597145 -0.031705886526265 -9.706072225449686 0.000016632814816 0.124372006547652 -9.962408418503019 0.000050315541303 0.046327535386006 -10.015485772668281 0.000074775261101 0.099637500158693 -9.975792648075018 0.00008778773541 0.068528502892345 -9.87309260317938 0.000088810374848 0.063274327345182 -9.933485541237632 0.000084349548245 -0.14830455029416 -9.939065499419534 0.000080130705957 -0.011054578600045 -10.119263079460492 0.000115336139684 0.031707783360279 -9.974558817189088 0.000257795289077 0.082941449365215 -9.951065594158393 0.000258824319758 -0.138208485768678 -9.82530517684968 -0.000117849041969 0.113552603436345 -9.830823540219374 -0.000013533437834 0.012854341355385 -10.113991752738338 0.00003943019152 0.007710361761047 -10.043981138167767 -0.000071032043586 0.189816674733369 -9.98393492395487 0.000066741558083 0.12744215841067 -9.995083901252006 0.000052835123514 -0.101028670417492 -10.002817324593964 -0.00011453482116 0.001416623273886 -10.063361260333636 -0.000062368599778 0.118907947576702 -10.04321088630379 0.000027905397385 0.20982992216021 -10.072750788590412 0.000135698171041 -0.108345845246894 -10.025475018548066 -0.000073353388336 -0.147556804077753 -10.055101370383627 -0.000107233776064 0.030491760847533 -9.872493342447957 0.000022129667099 0.214463226330527 -10.135765972781737 0.000083608061363 -0.000858003118065 -9.981228490056749 -0.000012109053844 0.170434802361768 -9.884366768903451 0.000088951349345 -0.068598579333538 -10.068352260699138 -0.000033662526281 0.020452906803173 -9.932857771696959 0.00002784627161 0.168972217513545 -10.02632188172511 0.00011261632503 -0.020102237770592 -9.88599559757103 0.000033312729033 0.033450698075612 -9.978192805135837 0.000025675429157 -0.202692082904163 -9.955180590937868 -0.000124144353435 -0.151000732075352 -10.011826520169024 -0.000031553622438 0.063980291317745 -10.004134935322003 0.000008257121214 -0.132974565776866 -10.017458361196956 -0.000084895381518 0.073200112722364 -9.932887110496662 -0.00025529242744 0.04101724811562 -10.022184502132195 -0.000294883597702 -0.172691381594615 -10.105596179704666 -0.004608382167042 0.196090247575002 -9.815467500079833 -0.004437127154429 0.026370088398704 -10.132394685588745 -0.020638385707357 -0.055628929840232 -10.205513805984863 -0.020680260545837 0.023884062617912 -9.936781019748416 0.00000529007233 -0.130535354942108 -9.951370160722661 -0.000054522779002 -0.050614767153634 -10.117610645768259 -0.000062725162233 0.174007520359456 -9.89110758496629 0.000093833051503 0.167634567971492 -9.911765434781344 0.000143565708686 -0.067483104077779 -9.98908557825732 -0.000077088750854 0.038263471408791 -10.152000855771242 0.000053895273309 0.051974445694848 -9.862206792423217 0.000038625768473 -0.126902842532615 -10.020762772065583 -0.000104183345111 -0.005986934215097 -9.856481604172037 0.000052658155284 0.009641010850171 -9.96848399558939 -0.000006549003461 -0.080052529726363 -10.046220445564037 -0.00004762829924 0.086653030144744 -10.030946481606465 0.000028999790166 0.042304453954895 -9.97424985675636 0.000002659993778 -0.018789508229681 -10.173564500459808 -0.000032736167297 0.096515405119613 -9.968172389493564 0.000066074895837 0.019630060071756 -9.963959261890487 -0.000006188112359 -0.084753311681294 -10.05815411867677 -0.000016333283861 -0.050454405054504 -10.044315768476061 -0.000078360011359 0.043809073001453 -10.109861386714567 0.000024247024183 -0.045320262863365 -10.03334765150578 -0.000016433390435 -0.054071765644931 -9.793208228109387 0.000012540069544 0.01763626677644 -10.066856219097447 -0.000029854746701 -0.24877089585371 -10.006748927823912 -0.000106978884552 -0.053658961172608 -10.173788852060035 -0.000011569786157 -0.017858739810086 -9.972271816836727 0.000323188196089 0.028630695413545 -10.130242813114464 0.000317317400276 -0.044466521611909 -10.015902192033208 0.004535184269554 0.076698330225199 -9.934082579739513 0.004606824148735 -0.033221763016459 -10.010982809974168 0.02063458710417 -0.088606557556197 -9.92726756519172 0.020612821019837 0.121129647220991 -10.103069450285956 0.000102431896366 0.080248462339273 -9.970406429982811 0.000034412431135 -0.014435009509338 -10.040432443674671 0.000007831649162 0.061030010484858 -9.931573364642531 0.000030320590063 0.116053728901077 -9.896119426043695 0.000073770778656 0.061756487964015 -10.028040041045029 0.000030841504607 0.103130032526585 -10.081025460680717 0.000072375867226 0.051052595877287 -10.051199239661079 0.000007544385505 0.012172406429727 -10.0598173557132 0.000007930369512 -0.039426095335732 -10.056712546728733 -0.000099655004118 0.012709308532635 -10.063446284416326 -0.00000797802352 -0.021349108505168 -10.166113905187764 -0.000020399560501 0.03126161388371 -10.116002613293871 -0.000015431362943 0.254097218508511 -10.071807840555277 0.000112893862199 0.081344472362547 -9.751635177075496 0.000028405712085 0.074099173386578 -10.088271230630307 -0.000006383673557 -0.136220953600595 -9.922328400747244 -0.000074276002365 0.002723727660643 -10.035039671805084 -0.000051437640955 0.056078776891756 -10.020114821155358 -0.00001950509542 -0.144834152857384 -9.988499669467867 -0.00008544606623 -0.083595980058209 -10.161670322891691 -0.000106286704921 0.136823726504622 -9.89194190435942 0.000139911782021 -0.041091283865634 -10.165675811042201 -0.000021031701461 0.123808641216042 -10.099380206960868 0.00005799596496 -0.075523059286858 -9.933046256685293 -0.000051643351179 -0.112899954094737 -9.919665036327723 -0.00041797404889 0.106865460646001 -9.964551187174434 -0.000263062312081 -0.127615694704694 -9.893620410123013 -0.004641257254316 0.004643194173462 -9.871926239190239 -0.004573468882727 -0.085840736500476 -10.082388238727795 -0.000036674203228 -0.079431348203475 -9.997017349036492 -0.000043400714247 0.088086018445428 -9.976645377862194 0.000046581358236 0.012668919451723 -9.870135912750419 -0.000065810068202 -0.138849170646171 -10.121882766400143 -0.000141514077516 -0.019901342527629 -9.999558917117069 -0.000047497859688 -0.102923484859686 -9.899454319940684 -0.000087576558341 0.133498453760286 -9.997021023820484 0.000057334073791 -0.006246221712404 -10.079817936215084 0.000056197575403 -0.138370376345899 -10.006650712581418 -0.000046873371694 -0.026957921351241 -10.016958554955124 -0.00001909064111 0.152218967688558 -9.91996748884562 0.000133274876166 0.012365303882902 -10.010087829937957 -0.000017427733945 -0.015159113165479 -9.839718650715769 -0.000042682265915 0.052697626712735 -9.843843610800679 0.000061499184411 0.015692416775003 -9.972696283698436 0.000000240592353 -0.015308589505792 -9.988746458799126 -0.000015136352374 -0.079830084481267 -10.091183641084926 -0.000037740898307 0.094875242309341 -10.083445885576399 0.000054952005413 0.021805999236189 -10.035460707774012 0.000063869903396 -0.10606778723454 -9.874461979163968 -0.00003175885028 -0.150264011245413 -10.224462995093058 -0.000021687545428 0.114860724393137 -10.12855161756627 0.000087458028703 0.027083984020254 -10.0997364833367 0.000091832049376 -0.07095951918483 -10.021914088358939 0.000007457835125 -0.087737093945708 -9.966157438334653 0.000310755124096 0.039471868717193 -10.131195179106889 0.000366130919192 0.208965375535403 -9.974020289437412 0.004698955972587 -0.010647489816188 -9.956135829540754 0.004564253590584 0.031896318928559 -10.045235093980967 -0.000012148433745 -0.056257747848998 -9.999366443277804 -0.00006185299724 -0.046303021984032 -10.1314433162784 -0.000044367369034 -0.01695909190688 -10.119907734837319 -0.00003258775271 -0.1796405473829 -10.061618161858787 -0.000149598816499 -0.106399625371068 -10.01244596015575 -0.000046765261353 0.104222534973849 -9.93306065070087 0.000055272480712 0.010984985832509 -10.128582023415222 -0.000034063751238 -0.167658798316248 -9.859184610829139 -0.000123904914541 0.09647358607528 -9.863046687691963 0.000070897396122 0.098250526638692 -10.228954914186938 0.000016566368413 0.124656945991173 -9.969977642411425 0.000106998922662 0.124535365053706 -10.055357078855412 0.000075004555996 -0.023644871090582 -10.079079535055568 -0.000071801524291 0.12202725692182 -10.044176873862099 0.000064037894812 0.00255240243448 -9.995502040755406 -0.000042454726132 0.028218778735296 -9.97232038418989 0.000080296752137 0.139489964941286 -9.911395963251508 0.000089402686875 0.030179735745648 -9.769579087769877 0.00000817061874 0.008309710870986 -9.731102441731824 0.000042335553093 0.144304215604449 -9.942630729500339 0.000107556597881 -0.065230301441992 -9.93917011303642 -0.000085804151743 0.070377748606784 -9.952578567665146 0.000061390297578 -0.102650656820431 -9.947975344729757 -0.000108315627568 -0.031601303549315 -10.065292716680407 -0.000012500077002 -0.015576872087707 -10.176756925485046 -0.000136118684331 -0.09074229878658 -10.058962285687045 -0.000228182199821 0.015062619187062 -9.971465874088421 -0.000308450401751 -0.15346558796007 -9.983091240451527 -0.00038257150929 -0.075984472566301 -10.041902880563374 0.00003354813147 0.08378844644367 -9.803893256664855 0.00006705769358 0.047510221929003 -10.033531731801705 0.000024282458041 0.146755095481356 -9.889833320101374 0.000064255420209 0.043888019353268 -9.95904889855748 0.000068097533738 0.134447121417898 -9.827190251946735 0.000085123813421 0.072427916839444 -9.925757827630559 0.000069370924859 -0.020568431430587 -10.039982987665104 -0.000026320398255 -0.109384887790846 -10.047103684109814 -0.000083657729761 -0.097591026333781 -10.204593644193595 -0.000061490522039 0.027799487227219 -10.075129827052125 0.00000046232582 -0.038427228537997 -9.920779051873355 -0.000083153544347 0.02334467133691 -10.086356747039856 0.000001114173643 0.075284913370147 -9.939862463394904 -0.000005919019659 -0.126672170866139 -10.165352117405318 -0.000086191713259 -0.069889651131052 -10.148111064608951 -0.00002028311442 0.015613102911282 -10.067701087486078 -0.000021197124166 0.089414049117045 -10.017187422262303 0.000104527580231 0.07622035778256 -9.966668544122285 0.000017770678651 -0.24788429277867 -10.175951642877434 -0.000103353812825 -0.073312175359199 -10.096166399206497 -0.000031907596765 -0.152420402180396 -9.95601022870386 -0.000000460745066 -0.038279969844504 -10.072516081020266 -0.000026430516268 0.165986574949353 -10.013778861907973 0.000145851660645 -0.006330690681391 -10.136591726769948 0.000067366091293 -0.058112706832985 -10.091328860913688 0.000090665755361 -0.060723951179497 -9.907293948765039 0.00014171328539 0.107442410140772 -9.881645709481415 0.000342399504572 0.04383792335574 -9.785119173619686 0.000380273617569 -0.013345120943354 -9.87433206940743 -0.000032351591321 0.05959820747412 -9.967560830457382 0.00007160749178 -0.039350888835596 -10.12550204281958 -0.000017012654577 0.025902946671255 -10.025546542990185 0.0000305156767 0.117859502842877 -10.117206802978403 0.000095097824648 -0.211056634368983 -9.956137177928515 -0.000103537295418 -0.064567929663907 -9.79207380018787 -0.000045151195795 0.177923692228796 -10.032519637513559 0.000083934520088 0.001531366303383 -10.016797518386031 0.000025530720052 -0.061228323802344 -10.080181204879418 -0.000033113163779 0.183329127602702 -10.052856255205073 0.000089090091881 -0.121718144557344 -9.932823568098591 -0.000088724677183 -0.118326581773604 -10.063222016040607 -0.00008938678797 0.052758719525846 -10.267403505524241 0.000031248261024 -0.014637591828243 -10.042090348074922 -0.00007303714736 0.017941498539067 -10.180553825413478 0.000011209954995 -0.10961398896061 -10.04708294376027 -0.000070682928284 -0.019567219317742 -9.890106551615077 -0.000008106166815 0.066981280401058 -9.897660897646549 -0.000020832778721 -0.032013221250489 -10.098778723978317 -0.000007746025983 -0.016935561006806 -10.088845623390926 -0.000074881687278 0.008810673821547 -9.960959385360113 -0.000005177487976 -0.045601998805214 -9.959317044442416 -0.000041714747493 -0.161252866012958 -10.089425165901039 -0.000387032754169 -0.240590125812142 -9.826141587849817 -0.000494445493232 -0.055809870999335 -10.018160192300648 -0.004610784784756 -0.066082601451372 -10.043491545154215 -0.004637350622218 0.108316495408912 -9.957190271265057 -0.020636275336151 -0.099158393441018 -9.993803883425658 -0.02067022306757 -0.232721012808453 -10.101168534577734 -0.000144625669885 0.034579332555978 -9.8878504996486 -0.000021227673756 0.029287023642247 -10.13822425539621 -0.000023267110616 0.104276368922058 -9.940284700079332 0.000010163422467 -0.050546075038433 -10.232676385451496 -0.000058201914649 -0.019539539241477 -9.941512466764165 -0.000043917524145 0.000306216395449 -10.02165958149088 -0.000052450138277 -0.087618925474236 -10.059149903525523 -0.000057966068851 0.074122059687434 -10.13683704022232 0.00004383082678 0.131229187068084 -10.086301163001419 0.000085722334179 0.067466832847189 -10.039293772575956 0.000007502084338 0.057795438356305 -9.811941266516049 0.000034367689696 0.044407306332899 -9.987968173565145 -0.000001521477625 0.195596788410212 -10.092748866803197 0.000130217621564 -0.020503981330603 -9.937303307995862 -0.000031501044962 -0.046619380599059 -10.027291563616144 0.000024854156077 0.091622528601447 -10.061772449782334 0.000036096581164 -0.080874591528266 -9.941523846945548 -0.000017282393696 0.033274936368863 -9.935348516611816 -0.000001878581685 -0.10879461682742 -9.953181975659215 0.000042895620067 0.038312769957795 -9.91976087623021 0.000017692186212 -0.172797045797611 -9.963811960408636 -0.000031748446804 -0.031884956344065 -9.968489798519174 -0.000009149942368 -0.025526639531116 -10.037717051344798 0.000267174882923 -0.014291130898959 -9.888141527351522 0.000378479299474 0.227002477728526 -10.195135278696249 0.004743376424167 -0.007377775933653 -9.943045855002984 0.00463211053394 -0.025542582769766 -10.0588827277977 0.020642417671522 -0.108964895373803 -10.057219699099974 0.020631643302831 0.07047809249188 -9.979385061784987 0.000044308323381 -0.154291493281864 -9.866315169423711 -0.000098054217431 0.033716150607562 -10.230363597467656 0.000031042838017 0.001849689688591 -9.80657223795593 0.000013770724622 0.093172817108132 -9.852214266974354 0.000036548079089 0.004923682198264 -9.903657371007956 0.000016933634319 -0.113602161386024 -9.923408524088165 -0.000116800069967 0.175651107671415 -10.027677652594509 0.00004565977474 0.050413815632974 -10.05602829801111 -0.000003250948798 -0.123932852433553 -10.116357754734562 -0.000076137475586 0.04814334921939 -10.11028034781496 -0.00003392119145 -0.106498833741609 -10.024990741617797 -0.000047857822164 -0.128595843483242 -10.05115838591883 -0.000063190959641 0.033323018245251 -10.04508318606041 0.000047933530007 0.166710711236117 -9.979720366936203 0.000104630601526 0.01539944661218 -10.16219394772909 0.000035375575415 -0.151311090114332 -9.977339602766973 -0.000067671782787 -0.14663165043985 -10.046457505010066 -0.00007518046548 0.170282988139108 -10.016948612640693 0.000034364501637 -0.089240589899174 -10.008798015104846 -0.000037981508793 0.080156213719375 -10.133099364294383 -0.000016566143342 -0.090052399589449 -10.068942228091942 -0.000168089057533 -0.221177405216369 -10.17677964497717 -0.000262997779831 -0.168500651897591 -9.93181666895466 -0.000489411993226 0.106195103448747 -9.993427956490512 -0.00035472085392 0.011757724699687 -10.003265654141735 -0.004758779824322 0.121328893534831 -10.03707105675932 -0.004656504002649 0.017723192361083 -10.19857731705037 0.000033853219458 0.076188124799521 -9.870014331025796 0.000035742641748 0.111365809642693 -9.991343024607533 0.000021853098618 0.018488123897419 -10.085851296502103 0.000047933323691 0.033495767253681 -10.012766232040001 0.000018601485654 0.009169247998157 -10.054620730915394 0.000006180483388 0.148431895527375 -9.991380365078667 0.000071694653398 0.076413086251369 -10.01399581025823 0.000044223678053 0.035921360502932 -10.045026876519328 -0.000001446361679 0.076436373137882 -10.097330375331561 -0.000015857772864 0.133088451226111 -10.012616511329956 0.000088161326515 0.011458495227368 -9.856905818293386 0.00003120011526 0.048227814783869 -10.17376258166153 0.000027685102571 -0.06113339712724 -10.071770284372011 -0.000056537854222 0.146244772539674 -9.927079959018041 0.000129189796247 -0.10615333113717 -9.935116210657769 -0.000052985467216 0.094334148113346 -9.903929338202945 0.000040455060223 -0.136059460253084 -9.899603428746486 -0.000062334836807 0.036586634652755 -9.95394073200422 0.0000002337