<?xml version="1.0" encoding="UTF-8" standalone="no" ?>
<VTKFile byte_order="LittleEndian" type="UnstructuredGrid" version="0.1">

  <UnstructuredGrid>
    <Piece NumberOfCells="0" NumberOfPoints="801">
      <PointData>
        <DataArray Name="mass" NumberOfComponents="1" format="ascii" type="Float32">1 1 1 1 1 1 1 1 1 1 1 1 1 1 1 1 1 1 1 1 1 1 1 1 1 1 1 1 1 1 1 1 1 1 1 1 1 1 1 1 1 1 1 1 1 1 1 1 1 1 1 1 1 1 1 1 1 1 1 1 1 1 1 1 1 1 1 1 1 1 1 1 1 1 1 1 1 1 1 1 1 1 1 1 1 1 1 1 1 1 1 1 1 1 1 1 1 1 1 1 1 1 1 1 1 1 1 1 1 1 1 1 1 1 1 1 1 1 1 1 1 1 1 1 1 1 1 1 1 1 1 1 1 1 1 1 1 1 1 1 1 1 1 1 1 1 1 1 1 1 1 1 1 1 1 1 1 1 1 1 1 1 1 1 1 1 1 1 1 1 1 1 1 1 1 1 1 1 1 1 1 1 1 1 1 1 1 1 1 1 1 1 1 1 1 1 1 1 1 1 1 1 1 1 1 1 1 1 1 1 1 1 1 1 1 1 1 1 1 1 1 1 1 1 1 1 1 1 1 1 1 1 1 1 1 1 1 1 1 1 1 1 1 1 1 1 1 1 1 1 1 1 1 1 1 1 1 1 1 1 1 1 1 1 1 1 1 1 1 1 1 1 1 1 1 1 1 1 1 1 1 1 1 1 1 1 1 1 1 1 1 1 1 1 1 1 1 1 1 1 1 1 1 1 1 1 1 1 1 1 1 1 1 1 1 1 1 1 1 1 1 1 1 1 1 1 1 1 1 1 1 1 1 1 1 1 1 1 1 1 1 1 1 1 1 1 1 1 1 1 1 1 1 1 1 1 1 1 1 1 1 1 1 1 1 1 1 1 1 1 1 1 1 1 1 1 1 1 1 1 1 1 1 1 1 1 1 1 1 1 1 1 1 1 1 1 1 1 1 1 1 1 1 1 1 1 1 1 1 1 1 1 1 1 1 1 1 1 1 1 1 1 1 1 1 1 1 1 1 1 1 1 1 1 1 1 1 1 1 1 1 1 1 1 1 1 1 1 1 1 1 1 1 1 1 1 1 1 1 1 1 1 1 1 1 1 1 1 1 1 1 1 1 1 1 1 1 1 1 1 1 1 1 1 1 1 1 1 1 1 1 1 1 1 1 1 1 1 1 1 1 1 1 1 1 1 1 1 1 1 1 1 1 1 1 1 1 1 1 1 1 1 1 1 1 1 1 1 1 1 1 1 1 1 1 1 1 1 1 1 1 1 1 1 1 1 1 1 1 1 1 1 1 1 1 1 1 1 1 1 1 1 1 1 1 1 1 1 1 1 1 1 1 1 1 1 1 1 1 1 1 1 1 1 1 1 1 1 1 1 1 1 1 1 1 1 1 1 1 1 1 1 1 1 1 1 1 1 1 1 1 1 1 1 1 1 1 1 1 1 1 1 1 1 1 1 1 1 1 1 1 1 1 1 1 1 1 1 1 1 1 1 1 1 1 1 1 1 1 1 1 1 1 1 1 1 1 1 1 1 1 1 1 1 1 1 1 1 1 1 1 1 1 1 1 1 1 1 1 1 1 1 1 1 1 1 1 1 1 1 1 1 1 1 1 1 1 1 1 1 1 1 1 1 1 1 1 1 1 1 1 1 1 1 1 1 1 1 1 1 1 1 1 1 1 1 1 1 1 1 1 1 1 1 1 1 1 1 1 1 1 1 1 1 1 1 1 1 1 1 1 1 1 1 1 1 1 1 1 1 1 1 1 1 1 1 1 1 1 1 1 1 1 1 1 1 1 1 1 1 1 1 1 1 1 1 1 1 1 1 1 1 1 1 1 1 1 1 1 1 1</DataArray>
        <DataArray Name="velocity" NumberOfComponents="3" format="ascii" type="Float32">0.111280831167389 -10.032247771973488 0.000080477937184 0.060811312026115 -9.937030072800008 0.000016857540867 -0.071218437582575 -9.884448331325329 -0.000022580441611 -0.171930116503984 -9.958203514921774 -0.000057574476045 -0.040088829253601 -9.773760232908078 -0.000116062169102 -0.227297812975539 -9.977235939523847 -0.000184341538718 0.086655938669066 -9.861439366914301 0.000037725514229 -0.103296536653856 -9.969804674062106 -0.000064453270894 -0.03588526119435 -9.968118626899454 -0.000097130464937 -0.111433966180576 -10.032690896487324 -0.000079721039189 0.004656017437486 -9.877218986066694 -0.000128326095527 0.084513398088192 -10.150085157366984 0.000046446176557 0.222489883734597 -9.959444230475361 0.000111362922998 -0.000656969671634 -9.953553972345041 -0.000019649397127 -0.075030761275445 -9.902551877025811 -0.000071343776044 0.015421791853701 -9.847620079796487 -0.000005321899606 -0.022806474675346 -9.911997503233803 -0.000014271832547 -0.132913806689163 -10.086859858532266 -0.000105598747813 0.005380210398392 -10.084208548421884 -0.000047524302617 -0.106203656049146 -9.946187658812315 -0.000003502949513 0.078715611554861 -10.030464493691355 0.000036685293673 -0.006922689872664 -10.068819389030235 0.000049857763034 -0.170592695750567 -9.969808484085423 -0.000139117132909 -0.064118388383166 -9.869995191184767 -0.000020270611572 0.015613037879446 -9.794565908116127 0.000070601735465 0.003854369300669 -10.05438029397725 -0.000001994577079 -0.010600967663867 -9.924964448722774 -0.000073631897674 0.031943389041281 -9.990931010848481 0.000029761676435 -0.089197678883018 -9.898173672843285 -0.000122539276809 0.131784672437084 -10.151478183063471 0.00009799925013 0.050590631330147 -10.07261499339549 0.000045118228138 -0.015991765206947 -9.900850105093843 -0.000082057703923 0.097456094614692 -10.047178723288743 0.00007846957985 -0.024292321403122 -9.964432856803008 -0.000073597495177 -0.10744865038317 -9.868100145879122 -0.000069909765287 0.052895242532367 -9.988897054742342 0.00000828294759 0.039759947553575 -9.908776833626089 0.000089014044769 -0.01113336790918 -9.922874033778806 -0.000041757135068 -0.039474329414011 -9.880427929534397 0.000008517644748 0.026484006667109 -9.942194930625568 0.000042757517501 -0.00924140983754 -10.147269612444932 -0.000009996818718 0.194179719625416 -10.09200096538223 0.000157175299571 0.079941457900054 -10.146410399205523 -0.000002816816705 0.101140235911815 -10.068265793419517 -0.000007322387578 -0.029027779216846 -10.150512906643565 -0.000042861670891 -0.083425586148718 -10.057770185321568 -0.000032099729086 0.141787433050344 -10.208135847589404 0.000063767082977 -0.002768290882593 -9.842634804850405 0.000068049994965 0.153884260273784 -10.098451987824676 0.000120078090439 0.133972948787962 -10.069028225238849 0.000135297112004 -0.076366209982346 -10.097977846816192 -0.000014704063033 0.049399129879925 -10.147083309281621 0.00001178623257 -0.070453397697802 -9.954321951554769 -0.000087890728874 -0.035047945398778 -9.974337403603814 0.000015877162653 -0.069409825082569 -9.950427846042869 -0.000043597707913 -0.066222408697667 -9.995922340242842 -0.000024233614657 -0.067271713192855 -10.052849904533046 -0.000071801747057 0.083457859505657 -9.934308835539097 0.000093780448483 0.007567668377227 -9.984240658849867 -0.000018037836522 0.068834872517762 -9.867229267668932 0.000097013877155 0.003887407358737 -10.096735513968655 -0.000061781907077 -0.015962654458954 -9.852777690975641 -0.000091848490231 0.043816181315563 -9.851459803336029 -0.000012153938091 0.035932114632837 -10.117953504653444 0.000025354549395 -0.111986702266066 -10.035190344681384 -0.000062193143193 -0.205485971592666 -9.926529158151016 -0.000073361943354 0.223186017250344 -10.129574721268794 0.000187153405731 0.029811769905263 -10.060814387115482 0.000078800832396 0.019249915522633 -9.842523487746345 -0.000027637842047 0.020417367832482 -9.902347007175431 0.000053542261754 0.135484998828403 -9.929406604878039 0.000147162062235 0.006999968542165 -9.99271893305578 0.000037166561158 0.209604011023885 -10.00386211876552 0.000197244018101 -0.034899863161714 -9.96751447267442 -0.000016270500298 0.074678164082184 -10.124398074561507 0.000014217781819 0.061637057776252 -10.127223389686975 0.00004749762466 0.115449561930627 -10.104381342075168 0.000094857927005 -0.072253837482013 -10.111757290625066 -0.000077488866093 -0.064481424505359 -9.980732324338147 -0.000053355717814 -0.119355126232425 -9.936634167997747 -0.000098972475088 0.001079343554645 -9.952877656965235 -0.000022109680977 -0.17515069312638 -9.96121027716902 -0.000153509654419 0.033789150624785 -10.058203031697696 -0.000034934609974 -0.075471188494239 -9.758419655391672 -0.000017134189504 0.0665826513528 -10.006737330263485 0.000068397724957 -0.043719567180709 -9.907135757817979 -0.000027639961142 -0.169017110283843 -9.894760592556279 -0.00011673057884 0.06236379399949 -10.050334071863542 0.000037669087461 0.203361685144868 -10.01868505549881 0.000186420046199 -0.017833834474889 -10.195365301626643 0.000025361148729 0.057771692595787 -10.078198609794271 0.000090662492853 0.011622794132427 -10.060658354119839 0.00001580391747 -0.074091173136038 -9.818117921551904 -0.000070466741059 0.141476680894716 -9.889674633290936 0.000115006795419 -0.052090455166712 -10.105142782774179 -0.000125562234824 0.136260811282612 -9.843846950152363 0.000126188378055 0.119380201561556 -10.087917398203475 0.00004051962229 0.064947443644226 -10.078730234516577 -0.000002158361658 0.053121930534573 -9.978697933250741 0.000025087163253 0.07955673432494 -10.12395249029551 0.00006399122907 0.006783418073796 -10.085578208725913 -0.000062815881018 -0.035942962157405 -9.94588462923449 -0.000087020296176 0.027932865858897 -10.058975926369687 0.000014743092195 -0.082658987270709 -10.029507006795605 -0.000128665522946 0.151535665858659 -9.820449549843834 0.000074538192614 0.097541662208505 -10.122594316151885 0.000055587804643 0.095719024576863 -10.070823533416119 0.000080269482634 -0.056607793171768 -10.102540803335081 -0.000037675510717 0.098407498306363 -10.049687647880173 0.000069325146568 -0.131819372043939 -10.026935946300268 -0.00010954260011 0.1026023323259 -9.923594919530002 0.000069615358956 -0.074008903602267 -9.96492303820529 -0.000057982934624 -0.05612846879836 -9.868978055404453 0.000010175063455 0.039882805406999 -10.031231882923162 -0.00001121306101 0.142331581067091 -9.973516166134807 0.000199359013754 -0.028170811611111 -9.94545280985986 0.00001991610614 -0.006640065685419 -9.730684940372694 0.000059735014985 -0.075834005393578 -10.04820803120381 -0.000040515836834 0.112409706166143 -10.002021455924265 0.000105366016475 -0.012321586108642 -9.883209278037295 0.000012069075367 -0.003598018285462 -10.189205867402743 0.000005224563946 -0.095615397195421 -9.939762487575226 -0.000060281389234 0.042482508897154 -10.084014683876811 0.000018847410643 0.250513641793002 -10.0021537331401 0.000153215428641 0.07618615171042 -9.951831536140832 0.000012014713672 -0.06093659814338 -10.0515091575994 -0.000065999006612 -0.000445246588943 -10.102560812878771 -0.000042125436138 -0.094114577641443 -10.035916158926966 -0.000040846980953 -0.019952767311515 -9.952388898325115 -0.000042121429911 0.076530225530877 -9.979826744683399 0.000045789812771 0.040165602945571 -9.960842916834567 0.000030547036875 -0.005001572582959 -10.207745270061706 0.000013309870166 -0.108888783510729 -9.838892054436929 -0.000201222694774 0.065738271416682 -10.14597945310647 0.000085691481385 -0.078903544604443 -9.970057310810244 -0.000167649263692 -0.089706887033796 -10.137388181207125 -0.000028036208108 -0.026761757485795 -10.064764249321623 -0.000072527488709 -0.011763211210911 -9.931251072753126 -0.000033852739251 0.056059429087175 -10.156182142225026 0.000007871933451 0.072719620676679 -9.881502288978149 0.000122581406392 -0.004511048757314 -10.123245032574152 -0.000017839711391 0.088283644699822 -9.972354451724811 0.000141123413714 0.008833388687676 -10.144861993979438 -0.000033513073617 0.159349677721703 -10.200901399476409 0.000189485357958 0.115424398058528 -10.036829944818228 0.000062934514958 -0.114639815695044 -10.077817206513833 -0.000053721486031 0.135198850427792 -9.920674865042367 0.000063421681269 0.070025798279011 -9.933889136213816 0.00006517347057 -0.034631699079955 -10.062682806045096 -0.000026355606664 0.067952756208315 -9.959719561539156 0.000047706093579 -0.062034052765264 -10.007126075304274 -0.000122384258094 -0.146918144694793 -10.016958541863684 -0.000067421614984 -0.08171126452232 -10.018602245782281 -0.000069700302448 -0.129449335782143 -9.914059802217873 -0.000093791237004 0.025452890824294 -10.014661569135619 0.000025356569789 -0.022435443921304 -9.854262582624836 -0.00005538832355 0.183262578930029 -10.051575525503651 0.000120840812069 -0.09647880717385 -9.977911437258859 -0.000132623387493 0.249686972295808 -9.906725017868842 0.00016354060408 0.11856677818639 -10.170085360696495 0.000030271352285 -0.033563071263377 -9.933287257432983 -0.000085455888799 -0.009107753354104 -10.126095717170156 -0.000025409451873 0.237776100556301 -9.944082860663469 0.000167626311282 0.16930482362247 -9.868138008839221 0.000114030640611 -0.05111734591978 -9.937928304736547 -0.000100548029485 -0.01021580987691 -10.149440562356643 0.000054902395919 0.084865811889373 -10.051764697750849 0.00004196160368 -0.032582875775771 -9.916997709536062 -0.000046905388178 -0.052795118550215 -9.895200569149146 -0.000167475642137 0.009127495849719 -10.024327590430293 0.00001359038237 -0.072507257453086 -9.91841914440386 -0.00016200315865 0.040463713939665 -9.893957410726117 0.000080046718853 -0.070817369233385 -10.099974419775638 -0.000095069089187 -0.124312517763873 -9.952949330052071 -0.000117793259278 -0.072259332188706 -9.9695741819324 -0.000039997853565 0.091467851814672 -9.930367174999633 0.000053809344262 -0.128926244360924 -10.041998594060747 -0.000076787340866 -0.182382192185132 -10.064496285415736 -0.0000913405582 -0.134998430433038 -10.057033774189071 -0.000146569144865 0.01149181172231 -10.120035739588957 0.000060889172322 0.003346912720687 -10.0297675921273 -0.000112397530956 -0.149018180266148 -10.143561340083613 -0.000167161879146 -0.088711027687435 -9.898761477952371 -0.000167929407385 -0.128422718989277 -9.916544508644071 -0.000287886597934 0.009906791128338 -9.934085236344728 -0.000226570286187 0.058425918802528 -9.88691632555847 -0.000252971461778 0.112834245391671 -10.102737738845802 0.000077098686452 0.011651198547573 -9.884417618656459 0.000064483434295 0.127290886565051 -9.849316381609675 0.000104846484893 0.046377153691693 -10.242472066061593 0.000017733855734 -0.086598828495985 -9.863519252767215 -0.000105140540734 0.102826040929255 -9.942381379993627 0.000083598458287 -0.042289929530199 -9.980573509799875 -0.000042154284504 -0.118666061194184 -9.956091414973587 -0.000097712910764 0.175859513015271 -9.940572438570976 0.000200038226982 -0.088176318936135 -10.105953645831029 -0.000094315250182 0.039790204908677 -9.908896029343648 0.00004903686224 -0.104345307518449 -10.053150229696964 -0.000054057444806 0.03503364951816 -9.921363701408696 0.000011325297639 0.108248455574526 -10.129896746146366 0.000067663566056 0.012694832596719 -10.009000853605038 -0.000010615561547 -0.122936304760111 -9.998565308975754 -0.000151599030608 0.095582005735716 -9.949871762815823 0.000066570870694 -0.080012780394794 -9.846433907059374 -0.000071581371259 0.107968070721927 -9.985256177967791 0.000102487667257 0.010515190589243 -9.977223716686002 -0.000024583437611 0.008692006995152 -9.927630110346668 -0.000004847439079 -0.031702930163528 -9.7073413925051 0.000021108114491 0.124382302799867 -9.962356033843156 0.000065082324966 0.046341842605302 -10.014507652996365 0.000095652005758 0.099655176269868 -9.975660806237588 0.000112664690238 0.068543998877983 -9.873606062301677 0.000109007371571 0.063288373246187 -9.933914691190411 0.000103207655978 -0.148296491904728 -9.939650929806184 0.000084130601394 -0.011039709134791 -10.117838345809364 0.000130119458367 0.031748523398072 -9.976441727371016 0.000304339919987 0.082982804424788 -9.94947543887646 0.000305666548299 -0.138232552638772 -9.825923724622159 -0.000153914990163 0.113549003152931 -9.831274203429613 -0.000017660778344 0.012864072585929 -10.113097698199764 0.000051491027873 0.007695156583683 -10.043405771420835 -0.000092798748287 0.189830411056554 -9.984264160632417 0.00008717916893 0.127454229758454 -9.995341809493695 0.000069018019056 -0.101053906063297 -10.002866854456524 -0.000149572141214 0.001402659865057 -10.063231572490652 -0.000081466285497 0.118913498144187 -10.043084921840011 0.000036457823366 0.209858978459755 -10.072690779665015 0.000177273950143 -0.10836131337243 -10.025179677849321 -0.000095785349402 -0.147578879394935 -10.055327544384912 -0.000140046083392 0.030497449248276 -9.873059409171967 0.000028925091665 0.214480644824941 -10.135057002660506 0.000109228285043 -0.000860222175327 -9.981179179926793 -0.000015779489156 0.170452430323551 -9.88500535885249 0.000116269206787 -0.068606372717444 -10.068073481562154 -0.000043866966242 0.020458099201214 -9.932647755383581 0.000036548758557 0.168994900427192 -10.026308286623044 0.000147248867321 -0.020094348363014 -9.886250009434747 0.000043932407146 0.033455375353661 -9.978367565339003 0.000033952242542 -0.202717592529648 -9.955144973195184 -0.000160808821056 -0.151004158546667 -10.011760744389319 -0.000039901620521 0.063984451974132 -10.003899744594984 0.000017115925583 -0.132988232076579 -10.01743299282102 -0.000104553698894 0.073168924919025 -9.933558847704278 -0.000279332426075 0.040976194814774 -10.02157013440652 -0.000331056518671 -0.173351577764501 -10.106567194882549 -0.005272592015252 0.195464254908074 -9.815445933229897 -0.005048944508966 0.023421873932724 -10.134294229703345 -0.023584606078617 -0.058584886286757 -10.202740796222656 -0.023639279315869 0.023885638470693 -9.937209664721482 0.000006907435748 -0.130544918359264 -9.95119749850317 -0.000071226145474 -0.050628192993261 -10.116765798210288 -0.000081950679071 0.174027072135437 -9.891457394648773 0.000122534464987 0.167664392926889 -9.912734315062234 0.000187520413082 -0.067501036491427 -9.988595404813061 -0.00010067749982 0.038275361201657 -10.151197278617738 0.000070388988741 0.051982705157115 -9.86246285751796 0.000050442377735 -0.126924458750061 -10.020940544735263 -0.000136089223708 -0.00597438891991 -9.856912190577752 0.000068757493386 0.009639735674615 -9.968727437563874 -0.000008574574087 -0.080061822878332 -10.045649975384238 -0.00006226160895 0.086657507197684 -10.031121211898485 0.000037853758866 0.042303864241336 -9.974394818121567 0.00000342456175 -0.018796514932852 -10.172795304623445 -0.000042799249299 0.096527517974337 -9.968378178416122 0.000086250570051 0.019629665245044 -9.964593149112602 -0.000008177316231 -0.084757156298757 -10.058077661209779 -0.000021516013557 -0.050471439735135 -10.044116672579799 -0.000102514933377 0.043812039391516 -10.109082638919087 0.000031270592764 -0.045322951246109 -10.033435481691393 -0.00002187908265 -0.0540682107576 -9.794352953135357 0.000015072430681 0.017629025746253 -10.067009259924127 -0.000040323410603 -0.248794827701 -10.00622888810118 -0.000146084766053 -0.053663529605418 -10.173442083803321 -0.000021452148333 -0.017812935883252 -9.972582267265496 0.000368035225357 0.028673908913714 -10.129766944108386 0.000360359930034 -0.043821275102306 -10.017092279956604 0.005176958196194 0.077358470415298 -9.933201751838121 0.005270557600494 -0.030274265851752 -10.012951676356783 0.023579652722424 -0.08566328830795 -9.925323483441151 0.023551222086559 0.12115202081281 -10.102648314881092 0.000133793000521 0.080254958554167 -9.970599914961404 0.000044978898392 -0.014432887506064 -10.040263610087903 0.000010236895618 0.061036020908339 -9.931867742558731 0.000039623682094 0.116069754290914 -9.896825494165588 0.000096401592162 0.061762804506963 -10.027877627593837 0.00004030457099 0.10314592509189 -10.080579573497639 0.000094542715126 0.051053563901821 -10.051166043013417 0.00000988400383 0.01217339585252 -10.059869475223572 0.000010396046581 -0.039447766931251 -10.056940715694038 -0.000130149642548 0.012706707611862 -10.063559866923333 -0.000010384969912 -0.021351704929514 -10.165669756259444 -0.000026609758262 0.031258063597564 -10.115074920404993 -0.00002011276129 0.254120506855896 -10.072049619949084 0.000147545901322 0.081351013491618 -9.7528087618964 0.000037163229208 0.074097390136186 -10.088121825139114 -0.000008208936927 -0.136233915691142 -9.922169114277279 -0.000096890930967 0.002712328853235 -10.03505973950122 -0.000066919887162 0.056073610480763 -10.020205348550201 -0.000025228276911 -0.144850826719949 -9.988385120100221 -0.000111018913178 -0.083618943307794 -10.161374426142691 -0.000138213721979 0.136854074470655 -9.892616433046602 0.000184462628534 -0.041094698914074 -10.165146805924223 -0.000025746111395 0.123823333225125 -10.098584610173015 0.000082959139071 -0.075530960520173 -9.933585635054287 -0.000060258886573 -0.112964668778288 -9.920563871456801 -0.000490365705239 0.106832638689366 -9.963722637658343 -0.000287989797595 -0.128283763621819 -9.89498401115744 -0.005313613869911 0.003991324580505 -9.870810979340799 -0.005225107991383 -0.085848289020097 -10.081973475094578 -0.000047916833139 -0.079439314810866 -9.996924437291606 -0.000056704675369 0.088095078038115 -9.977196109112279 0.000060833603438 0.012654280368767 -9.870687813163885 -0.000085977701983 -0.138879367014583 -10.121072728079422 -0.00018484760573 -0.019912268399106 -9.999267981924946 -0.000062065822208 -0.102941560535667 -9.900334920713165 -0.000114416304002 0.13350863979751 -9.997053633666578 0.000074878741426 -0.006232942594594 -10.079292610201231 0.000073375508476 -0.138378405496813 -10.006446650760775 -0.000061262446798 -0.026962035069601 -10.017084658106686 -0.000024963448205 0.152247873234865 -9.919978128891314 0.000174020423902 0.012360708848692 -10.009733179467517 -0.000022805998471 -0.015169582219156 -9.840178164828673 -0.000055812778487 0.052711034794612 -9.844521851556101 0.000080242435672 0.015692778579142 -9.972665390069155 0.000000183575091 -0.015312035090794 -9.988640696438067 -0.000019895662181 -0.079838067506976 -10.090805824076824 -0.000049569974689 0.094886871837065 -10.082779055944052 0.00007152951696 0.021819212332126 -10.036011319072633 0.000082818716245 -0.106073862994513 -9.875459721144066 -0.000042078612243 -0.150268921975161 -10.223777377085451 -0.000030060836227 0.11487733152543 -10.127763835817483 0.000112508950346 0.02710015276553 -10.099768976277071 0.000112776648556 -0.070961773738596 -10.022345180179729 0.000002548412226 -0.087693998799322 -9.967023908197644 0.000350307322038 0.039525740173875 -10.130011794941074 0.000422631907074 0.209644907130829 -9.975306573483097 0.005389008937526 -0.009996452931898 -9.955205724439677 0.005213058983174 0.031892800650102 -10.045318998129332 -0.000015852176477 -0.056269978280199 -9.999728172435494 -0.000080786223203 -0.046313010620267 -10.131111551237389 -0.000057914398645 -0.016966275564549 -10.119407878762411 -0.000042539852257 -0.179671711314664 -10.061493971573146 -0.000195398457799 -0.106408986270629 -10.012937638285322 -0.00006105713479 0.10423586902382 -9.933168816745948 0.000072222237186 0.010978004566315 -10.127765002755243 -0.000044455674229 -0.167684163640279 -9.860122102797716 -0.000161790113275 0.096487415885422 -9.863841833588403 0.000092671567079 0.098252056728157 -10.227796656846737 0.000021679252552 0.124680680010246 -9.969975302438039 0.000139845439395 0.12455009115467 -10.055727671097559 0.000098064822291 -0.023659419758876 -10.078670946951185 -0.000093704839288 0.122039842133538 -10.044037981319599 0.000083788787085 0.002542756630906 -9.995512546487046 -0.000055227575593 0.028238105099626 -9.972027404969509 0.000105080184651 0.139508091779774 -9.911186450766614 0.000117203022603 0.030182346242879 -9.770387173638484 0.000011102343112 0.008320665502775 -9.731948736086126 0.000056269491695 0.14432714853624 -9.942278261973485 0.000141477449317 -0.065247989933714 -9.938730489123261 -0.000109263453637 0.070391418773464 -9.952793470920437 0.000083017215765 -0.102669509218219 -9.948537855595315 -0.000132277359546 -0.031600229202155 -10.064971305246543 -0.00000709105115 -0.01559289900045 -10.176467380066025 -0.000150037443297 -0.090779685012486 -10.058166035301717 -0.000270299667033 0.015019636561414 -9.973851809526307 -0.000349835949033 -0.153523346758774 -9.981301718381989 -0.000446660044203 -0.075974716017582 -10.041380501948984 0.000043789809591 0.08380180131264 -9.804583156378843 0.000087564030365 0.047515109481803 -10.033394284470546 0.00003169529645 0.146767648165176 -9.889502296483334 0.000083914863891 0.043902261471921 -9.959144672547072 0.000088942353456 0.134465383513702 -9.827794118108304 0.00011115866575 0.072442067206363 -9.92608261976682 0.000090598444754 -0.020574607418614 -10.039878893222234 -0.000034404005623 -0.109402377197339 -10.046906874092526 -0.000109314167219 -0.097602646376152 -10.203637796741088 -0.000080385626126 0.027799080840531 -10.075092945271722 0.000000556926563 -0.038445985324504 -9.921415750052256 -0.000108680929939 0.023344707379579 -10.086503005207851 0.000001381796458 0.075283084958113 -9.940275780730166 -0.000007843003584 -0.126689623989625 -10.16496674487043 -0.00011270503575 -0.069892886245834 -10.147374412805867 -0.000026721186433 0.015607691618579 -10.067694178748273 -0.000027890559734 0.089436873506282 -10.017825080914767 0.000136110770397 0.076222901536773 -9.967164619182906 0.000022785928045 -0.247906027639081 -10.175135860223984 -0.00013598542594 -0.073318631660888 -10.095823983202649 -0.000042677213802 -0.152421335548909 -9.956619896269828 -0.00000343188952 -0.038287476438972 -10.072700267543327 -0.000037331932107 0.166011498679455 -10.013882157898873 0.000181291210687 -0.00632005221259 -10.135886219067679 0.000078776831912 -0.05810605012629 -10.091364935847082 0.000090646003085 -0.060705610374428 -9.906884333520365 0.000157336392418 0.107492169818102 -9.884046003096499 0.000394169835984 0.043896558123868 -9.783435466535572 0.000443647496691 -0.013353146593642 -9.875064445646176 -0.000042212718354 0.059612596951647 -9.967477729817306 0.000093582481438 -0.03935382736322 -10.124960637130588 -0.000022191324786 0.025909170027973 -10.025273590194889 0.000039896036553 0.117880632259851 -10.116505566625117 0.000124223870305 -0.211076956223791 -9.956451515808924 -0.000135187622103 -0.064579203423392 -9.793268657406669 -0.000058915612812 0.177942205910135 -10.03245916926606 0.000109681950103 0.001537351733332 -10.01638650946048 0.000033396791833 -0.061234842854926 -10.079752051107851 -0.000043176185942 0.183347532846122 -10.052817367082913 0.00011644010552 -0.121737914487235 -9.933883593866639 -0.000115778682948 -0.118345027013509 -10.063152340031982 -0.000116653356899 0.052766330345866 -10.266482703033374 0.000041008684749 -0.014653328250306 -10.042148084700589 -0.000095201372114 0.017944229922624 -10.180127465465167 0.000015017473911 -0.109629413862574 -10.046739492432595 -0.00009195068283 -0.019567932573337 -9.891181253766707 -0.000009801853877 0.066976066288541 -9.898389234285046 -0.000026414721784 -0.032014116868773 -10.098022449092781 -0.000008080855218 -0.016951025588992 -10.088154737569509 -0.000095782062651 0.008811857391462 -9.961568548588639 0.000000928833369 -0.045605621846403 -9.959282789408025 -0.000046804588258 -0.1613113230223 -10.089131614653391 -0.000449172506833 -0.240669625518351 -9.826743352229498 -0.000589455791061 -0.056470037252379 -10.019485282826974 -0.005272668202908 -0.06674957078579 -10.041622782618155 -0.005307336971915 0.105370140562983 -9.959270219049907 -0.023578547517596 -0.102111833452387 -9.991964173138284 -0.023622881666748 -0.2327498648604 -10.100799097030825 -0.000188940718066 0.034573468537959 -9.888413029940725 -0.00002777133406 0.029281183698161 -10.138352223464747 -0.000030424047244 0.104277242242258 -9.940171138754373 0.000013244557875 -0.050558032579227 -10.232007726580939 -0.000076072788626 -0.019547740587773 -9.941761842229184 -0.000057409580852 0.000294907222189 -10.022371995102969 -0.000068559877404 -0.087629708139837 -10.058953753779578 -0.00007578691796 0.07413102255141 -10.136375945706837 0.000057209338493 0.131247175422053 -10.085666137830049 0.000111900187386 0.067468122580936 -10.03939543407488 0.000009709284742 0.057801295256985 -9.813141133538126 0.000044781197682 0.044406461841682 -9.987970820857637 -0.000002106342579 0.195624362805226 -10.091987360885168 0.000169867977369 -0.020511052006812 -9.937681606154715 -0.00004135353038 -0.046612891293069 -10.027257666813664 0.000032079955708 0.091630395613518 -10.061223783481831 0.000046771444816 -0.080879063343299 -9.941728961889325 -0.000023339540674 0.033274232504517 -9.935588247223095 -0.00000324196477 -0.108785434863755 -9.953186658612058 0.000054003347575 0.038315689995187 -9.919897489605351 0.000021077028885 -0.172806345356165 -9.963967672722928 -0.000049167519696 -0.031890533865795 -9.968179834363765 -0.000019654846675 -0.025495362506545 -10.038050846303671 0.000292607365432 -0.014233964024614 -9.888289792169283 0.000437991470482 0.227689889411735 -10.195795015441835 0.0054458624413 -0.006712227878465 -9.941875123190183 0.005300526962487 -0.022595351909872 -10.061124774461966 0.023586558951785 -0.106019750662301 -10.055021122229288 0.02357248126894 0.070487401563292 -9.979675731600246 0.000057922501 -0.154311686990108 -9.866424363837824 -0.000128029461969 0.033722745836001 -10.228998683135581 0.000040595279822 0.001852801967799 -9.806912490023052 0.000018056972465 0.093179393373149 -9.853208871372624 0.000047840079833 0.004927239847148 -9.903713860225077 0.000022173284995 -0.113626696488711 -9.923523768173965 -0.00015245592865 0.175659467490612 -10.027602279209702 0.000059745846969 0.050413899254641 -10.055868331123804 -0.000004168066051 -0.123948293072409 -10.115973021342729 -0.000099323403158 0.048136375151464 -10.110040156138842 -0.000044176009235 -0.106508767407052 -10.025223755554453 -0.000062290679453 -0.128609012811294 -10.051129651475309 -0.000082312559612 0.033332153708461 -10.045297027682929 0.000063031549838 0.166732518752479 -9.979870615225162 0.000137046088618 0.015407786071564 -10.1616976987162 0.000046947970602 -0.151324126089349 -9.977424651751809 -0.000087632809599 -0.146646281164912 -10.046625271384997 -0.000096496975847 0.170289536738638 -10.017101458743069 0.000046576826998 -0.089246680395975 -10.009025985274402 -0.00004509165163 0.080154403054621 -10.132938399575943 -0.000017137407393 -0.090082532258037 -10.068568816187831 -0.000204359886239 -0.221227519896617 -10.176229497439531 -0.000328290122676 -0.168570221660557 -9.932835332430214 -0.000562446520845 0.106154674953163 -9.993355786941787 -0.000386560789754 0.011080514447541 -10.004421338943027 -0.005434838378112 0.120673289000341 -10.035663651431044 -0.005301251693399 0.01772960210671 -10.197429724208316 0.000044188613931 0.076194895671685 -9.871191404608592 0.000046630589266 0.111369156571554 -9.991847371093787 0.000028500143302 0.01849946131558 -10.08530416641157 0.000062524785783 0.033500968371578 -10.012669645464761 0.000024212594226 0.009171128960981 -10.054593850604807 0.000007993967124 0.148446539925342 -9.991543661165069 0.000093591539963 0.076422122017426 -10.014269966017665 0.000057678685147 0.035919615061498 -10.044833485613124 -0.000001967527795 0.076431276202912 -10.096644965247751 -0.000020853051754 0.133107870190516 -10.01303484595519 0.000114998126327 0.011466624032101 -9.857887561326459 0.000040523311925 0.048234424809599 -10.172873840623041 0.000035931714027 -0.061145868352951 -10.071003421291538 -0.000074217189179 0.146272615038589 -9.927573904271107 0.000168352036228 -0.106165049442533 -9.935330526425684 -0.000069952294331 0.094342066869672 -9.904082762161904 0.00005208404337 -0.136072821731163 -9.900122701489114 -0.000083135469767 0.0365864640111