<?xml version="1.0" encoding="UTF-8" standalone="no" ?>
<VTKFile byte_order="LittleEndian" type="UnstructuredGrid" version="0.1">

  <UnstructuredGrid>
    <Piece NumberOfCells="0" NumberOfPoints="801">
      <PointData>
        <DataArray Name="mass" NumberOfComponents="1" format="ascii" type="Float32">1 1 1 1 1 1 1 1 1 1 1 1 1 1 1 1 1 1 1 1 1 1 1 1 1 1 1 1 1 1 1 1 1 1 1 1 1 1 1 1 1 1 1 1 1 1 1 1 1 1 1 1 1 1 1 1 1 1 1 1 1 1 1 1 1 1 1 1 1 1 1 1 1 1 1 1 1 1 1 1 1 1 1 1 1 1 1 1 1 1 1 1 1 1 1 1 1 1 1 1 1 1 1 1 1 1 1 1 1 1 1 1 1 1 1 1 1 1 1 1 1 1 1 1 1 1 1 1 1 1 1 1 1 1 1 1 1 1 1 1 1 1 1 1 1 1 1 1 1 1 1 1 1 1 1 1 1 1 1 1 1 1 1 1 1 1 1 1 1 1 1 1 1 1 1 1 1 1 1 1 1 1 1 1 1 1 1 1 1 1 1 1 1 1 1 1 1 1 1 1 1 1 1 1 1 1 1 1 1 1 1 1 1 1 1 1 1 1 1 1 1 1 1 1 1 1 1 1 1 1 1 1 1 1 1 1 1 1 1 1 1 1 1 1 1 1 1 1 1 1 1 1 1 1 1 1 1 1 1 1 1 1 1 1 1 1 1 1 1 1 1 1 1 1 1 1 1 1 1 1 1 1 1 1 1 1 1 1 1 1 1 1 1 1 1 1 1 1 1 1 1 1 1 1 1 1 1 1 1 1 1 1 1 1 1 1 1 1 1 1 1 1 1 1 1 1 1 1 1 1 1 1 1 1 1 1 1 1 1 1 1 1 1 1 1 1 1 1 1 1 1 1 1 1 1 1 1 1 1 1 1 1 1 1 1 1 1 1 1 1 1 1 1 1 1 1 1 1 1 1 1 1 1 1 1 1 1 1 1 1 1 1 1 1 1 1 1 1 1 1 1 1 1 1 1 1 1 1 1 1 1 1 1 1 1 1 1 1 1 1 1 1 1 1 1 1 1 1 1 1 1 1 1 1 1 1 1 1 1 1 1 1 1 1 1 1 1 1 1 1 1 1 1 1 1 1 1 1 1 1 1 1 1 1 1 1 1 1 1 1 1 1 1 1 1 1 1 1 1 1 1 1 1 1 1 1 1 1 1 1 1 1 1 1 1 1 1 1 1 1 1 1 1 1 1 1 1 1 1 1 1 1 1 1 1 1 1 1 1 1 1 1 1 1 1 1 1 1 1 1 1 1 1 1 1 1 1 1 1 1 1 1 1 1 1 1 1 1 1 1 1 1 1 1 1 1 1 1 1 1 1 1 1 1 1 1 1 1 1 1 1 1 1 1 1 1 1 1 1 1 1 1 1 1 1 1 1 1 1 1 1 1 1 1 1 1 1 1 1 1 1 1 1 1 1 1 1 1 1 1 1 1 1 1 1 1 1 1 1 1 1 1 1 1 1 1 1 1 1 1 1 1 1 1 1 1 1 1 1 1 1 1 1 1 1 1 1 1 1 1 1 1 1 1 1 1 1 1 1 1 1 1 1 1 1 1 1 1 1 1 1 1 1 1 1 1 1 1 1 1 1 1 1 1 1 1 1 1 1 1 1 1 1 1 1 1 1 1 1 1 1 1 1 1 1 1 1 1 1 1 1 1 1 1 1 1 1 1 1 1 1 1 1 1 1 1 1 1 1 1 1 1 1 1 1 1 1 1 1 1 1 1 1 1 1 1 1 1 1 1 1 1 1 1 1 1 1 1 1 1 1 1 1 1 1 1 1 1 1 1 1 1 1 1 1 1 1 1 1 1 1 1 1 1 1 1 1 1 1 1 1 1 1 1 1 1 1 1 1 1 1</DataArray>
        <DataArray Name="velocity" NumberOfComponents="3" format="ascii" type="Float32">0.111240446499553 -10.033960119595324 0.000020109924301 0.060807000258898 -9.936184061628813 0.00000421303397 -0.071210613602992 -9.884175676408951 -0.000005644404869 -0.171903400898655 -9.958240554330507 -0.00001439907479 -0.040026305053482 -9.772372437651844 -0.000029005764527 -0.227203472360469 -9.977422906307021 -0.000046082755622 0.086638938308839 -9.861324647956408 0.000009431669885 -0.103267362762219 -9.96933717781487 -0.000016100922446 -0.035836605093599 -9.969501712495004 -0.000024271934319 -0.111394216807028 -10.032275274693257 -0.00001991893185 0.004722464976996 -9.875993764300413 -0.000032068854522 0.084491857120658 -10.152256753060877 0.000011604868531 0.222432931325832 -9.960405929684482 0.000027841155579 -0.000645650407089 -9.952930421492209 -0.000004914529316 -0.07499526792424 -9.902087309447547 -0.000017815128716 0.015422448939584 -9.845168080559997 -0.00000132393041 -0.022799940527776 -9.910903429750295 -0.000003570264237 -0.132858729014957 -10.089553385310804 -0.000026426607125 0.005409580328362 -10.085769651891292 -0.000011890599775 -0.106203618232509 -9.944311518535587 -0.00000087928783 0.078695508120118 -10.030466675059577 0.000009178042196 -0.006946919854863 -10.071086640169977 0.000012454420853 -0.170519997146099 -9.970655209812646 -0.000034761909837 -0.064105983170347 -9.867267775196725 -0.000005065491393 0.015572226371726 -9.792483919344889 0.000017652809243 0.003857609481223 -10.055906457304953 -0.000000504988112 -0.010563835073074 -9.926313558829353 -0.000018382532606 0.031928622800981 -9.986752670570375 0.000007436716454 -0.089133800060113 -9.899341638140557 -0.0000306297038 0.1317308640688 -10.144771452335259 0.000024499451846 0.050569516641094 -10.081675538040496 0.000011271184429 -0.015949204818388 -9.899374525454212 -0.000020509781941 0.097413661720584 -10.049439386022783 0.000019615263264 -0.024250285828667 -9.964725270547328 -0.000018416130693 -0.10741269555001 -9.866545600975829 -0.00001749934949 0.052894171663299 -9.989520408326614 0.000002058591281 0.039713173737648 -9.90930516121816 0.000022263902798 -0.011114733666287 -9.922276028163438 -0.000010424705368 -0.039478805922074 -9.878336756534482 0.000002133666447 0.02645828322652 -9.941295592601174 0.000010681567015 -0.009232783680378 -10.149168756494181 -0.000002525957018 0.19410217743201 -10.093203313406031 0.000039264220481 0.079943735495169 -10.146366843437379 -0.000000700665682 0.101148219569134 -10.068139821027962 -0.000001832965631 -0.029012065151675 -10.150126842980535 -0.000010716759941 -0.083412439819961 -10.059240687100797 -0.000008041684414 0.141758657839108 -10.209302656177931 0.000015904323826 -0.00281043790175 -9.839565145912452 0.000016987891162 0.153826904262933 -10.097673119804165 0.000030003356902 0.133904488472713 -10.070050810933393 0.000033775177852 -0.076361608108099 -10.098986450777144 -0.000003737810365 0.049395708105366 -10.148836561438952 0.000002874696965 -0.070406815212038 -9.953332678464117 -0.000022106014333 -0.035055416819163 -9.972973895515191 0.000003848502741 -0.06938928403592 -9.94966674190233 -0.000011107198647 -0.066210685463997 -9.99656116278334 -0.000006266819551 -0.067238003636976 -10.053814057512847 -0.000018278624417 0.083407893642005 -9.934589038705935 0.000023111486711 0.007577063768562 -9.980386252128218 -0.000004957907948 0.068782717196955 -9.869453739792336 0.000023786602314 0.003922818760728 -10.089680562350569 -0.000015952655046 -0.015913351236228 -9.860503005241394 -0.000023484798255 0.043824274814647 -9.848284927883808 -0.000003029197851 0.035923527452722 -10.121196013938587 0.000006342513998 -0.11196183519198 -10.035791578093177 -0.000015533851097 -0.205453147784636 -9.924243929070334 -0.000018326638108 0.223090089244251 -10.13227913767378 0.000046783250661 0.029771699068765 -10.062885173496948 0.000019674468654 0.019270692913942 -9.839883601066052 -0.000006912707357 0.020391820657067 -9.900591080480714 0.000013371299232 0.135407844425288 -9.929531082643505 0.000036795626472 0.006977811956365 -9.993542187009428 0.000009298926608 0.209500632382033 -10.003547361359844 0.000049334032412 -0.034892468226664 -9.966180416785875 -0.000004059631699 0.074670148193229 -10.125346749778444 0.000003559970441 0.06161315254113 -10.128462327412363 0.000011883111182 0.115397951745807 -10.105088122407791 0.000023717040597 -0.072213344848426 -10.112874240165008 -0.000019332914103 -0.064452178490501 -9.980078596103732 -0.000013317720592 -0.119303378595262 -9.935235585287376 -0.000024677934854 0.001091970582417 -9.951947232390308 -0.000005492718474 -0.175070942242114 -9.962781276117354 -0.000038277348387 0.033811275648418 -10.059280103996837 -0.000008666679983 -0.075464798292259 -9.755950860500848 -0.000004156045259 0.066542337884785 -10.007188470193512 0.000017207816043 -0.043705471740056 -9.907174027119153 -0.000006693580313 -0.168960820803229 -9.893190765012829 -0.000028970848261 0.06234440563448 -10.050044719172462 0.00000974450416 0.203270781005147 -10.019355270983652 0.000046931087083 -0.017849075310194 -10.194725887775281 0.00000680664362 0.057724594558333 -10.083034654189618 0.00002311848869 0.011614570698856 -10.051889405187547 0.000004464371909 -0.074051625430294 -9.824104050178603 -0.000017106894634 0.141415357019159 -9.88849979087888 0.000028742786191 -0.052024627494996 -10.106742894906809 -0.000031402461983 0.136198577474097 -9.841934580497234 0.000031520841535 0.119359822932415 -10.088562711159918 0.000010134073625 0.064951520330504 -10.0800124597761 -0.000000550466913 0.05310784579673 -9.97719440849985 0.000006263792928 0.07951931171077 -10.125511301530196 0.00001599166553 0.006818950979497 -10.086513986069233 -0.000015730153993 -0.035899095106865 -9.944064098078584 -0.00002177343294 0.027924275025196 -10.060447766610263 0.000003670109839 -0.082594549422424 -10.029425395846403 -0.000032158928876 0.151500611540088 -9.817023733084534 0.000018616636793 0.097514192166068 -10.123387124981916 0.000013875527841 0.095679139032113 -10.072767076514946 0.000020025859285 -0.056586994467771 -10.10291610115773 -0.000009454342593 0.098369694571386 -10.050392923330485 0.000017270901651 -0.131764736402153 -10.026857294704943 -0.000027435111829 0.10256543775963 -9.923092459989777 0.000017297072123 -0.073982764735982 -9.964023702921512 -0.000014571205243 -0.056136147476702 -9.867841185446393 0.000002344010336 0.039893858681183 -10.032314075778018 -0.000002994640098 0.142226274802423 -9.975933696545678 0.00004943426401 -0.028178218599207 -9.944138333144341 0.000004573421718 -0.006670392111647 -9.727039653566633 0.000014073720755 -0.075811503662812 -10.050137956680663 -0.000010982241554 0.112355848478199 -10.002390279137799 0.000024585893778 -0.012330134582233 -9.881870332378599 0.00000126635849 -0.00359904959239 -10.18867340976877 -0.000001671195995 -0.095587895966839 -9.94232979036622 -0.000018034515607 0.042471521863201 -10.075435147019959 0.000001085398462 0.250434315442292 -10.010440036555931 0.000034683428394 0.0761817427558 -9.950068778408088 0.000003017509256 -0.060901756633725 -10.052334344227601 -0.000016489554117 -0.000419174129668 -10.104689485387997 -0.000010549666422 -0.094095467550996 -10.036200968208044 -0.000010209587079 -0.019933618703977 -9.951253556556001 -0.000010524122948 0.076505781884833 -9.977807421988038 0.000011467494376 0.040145259884827 -9.961777065227931 0.000007656482628 -0.005005431506974 -10.209799287494411 0.000003338391648 -0.108780977834338 -9.837138140094961 -0.000050292811031 0.065694821961041 -10.145571349925843 0.000021439702596 -0.078814891030173 -9.970331758721874 -0.000041915098599 -0.089696492274964 -10.138762987649713 -0.000006986486908 -0.026724480333998 -10.064769297595594 -0.000018115353072 -0.011746143838134 -9.930170289290288 -0.000008425520748 0.056054698821262 -10.157027909235309 0.00000200159512 0.072654608190825 -9.880545624404419 0.000030698545761 -0.004504170150256 -10.122849944739166 -0.000004402289544 0.088213484920609 -9.971388896893567 0.000035359418109 0.008851849255407 -10.145777841528773 -0.000008279413831 0.15925350305242 -10.20333619459846 0.000047532038068 0.115392899307364 -10.036904057471403 0.000015915575362 -0.114615381398128 -10.077955299862857 -0.000013040695962 0.135167204214011 -9.918883979344702 0.000016250864038 0.069992302353175 -9.932663875208524 0.000017139282779 -0.034620890646978 -10.064131931740251 -0.000005733032029 0.067926703337622 -9.959260066127374 0.000013686187484 -0.061969604961612 -10.006900499907932 -0.000028854979193 -0.146884018847259 -10.01548384374729 -0.000013882471719 -0.081677792752959 -10.021263715147747 -0.000014448010343 -0.129396833235033 -9.905507081626872 -0.000019826664906 0.025440493213233 -10.022490474206093 0.000009962916743 -0.0224014521022 -9.852022518346676 -0.000013867860603 0.183200037221003 -10.053976128484402 0.000030203812483 -0.096413816952439 -9.977465757808414 -0.000033147817465 0.249600669014905 -9.90551380203782 0.000040867729828 0.118550056919329 -10.171685665891685 0.000007568189088 -0.033519197267611 -9.933411812992498 -0.000021381687391 -0.00909133271704 -10.12761926997603 -0.000006376616985 0.237688707860797 -9.944196684268507 0.000041878014262 0.169249196446687 -9.864374589641129 0.000028495413121 -0.051066515984265 -9.93707237977444 -0.000025168376731 -0.010252168493528 -10.153036643499178 0.000013704563639 0.084842361999474 -10.053666637041422 0.00001043897206 -0.032559545914276 -9.914581384071928 -0.00001175531045 -0.052703610628448 -9.893928837103495 -0.000041930744639 0.00912451029725 -10.026015164110909 0.00000333798882 -0.072422585838934 -9.917311055113773 -0.000040603012222 0.040423300555142 -9.892621768071736 0.000019915894457 -0.070769769917524 -10.102164288547387 -0.000023930779349 -0.124251884174724 -9.953540982618525 -0.000029644395115 -0.072239402859111 -9.96816240000493 -0.000010412618596 0.091442855776813 -9.929271813336484 0.000013038445514 -0.128890569276451 -10.042382642048723 -0.000020267861375 -0.182337916373303 -10.065064264842629 -0.000023930841763 -0.13492267652325 -10.057257761806827 -0.000040153191213 0.011460613326398 -10.120288658535266 0.000011714061542 0.00341087240185 -10.030239166275194 -0.000040290175209 -0.148933754137784 -10.145601151389853 -0.000053975700147 -0.088630229433196 -9.894978083899534 -0.00007776890134 -0.128276298407414 -9.917760087214766 -0.000107785253874 0.01001856024913 -9.926483331608203 -0.000112935588989 0.058554317554925 -9.894532032185545 -0.000119536156282 0.112796348408928 -10.106078904851671 0.000019291170418 0.011613304738264 -9.880322425905961 0.000016134399598 0.127236986626685 -9.8473823221386 0.000026215325144 0.046369133671556 -10.2471049139412 0.000004427464669 -0.086547929798337 -9.862837426054417 -0.000026248384781 0.102782035841547 -9.940207646234983 0.000020916479208 -0.042270391604258 -9.981652687456927 -0.000010520539516 -0.118619070814758 -9.95514800342241 -0.000024389917669 0.175757695977234 -9.940512331931169 0.000050011917921 -0.08812581508328 -10.107386178908049 -0.000023562653999 0.039767926086767 -9.908597056741808 0.000012270366219 -0.104314186229384 -10.052213684333841 -0.000013483613834 0.035027652004379 -9.920844708640425 0.000002868839996 0.108218153755681 -10.131344320661594 0.000016964248151 0.012701412305703 -10.010012085869231 -0.00000260371516 -0.122858371681086 -9.998711346702468 -0.000037796164008 0.095549248891374 -9.949207099845056 0.00001673052156 -0.079979029624015 -9.844441643374976 -0.000017712628495 0.107912749971279 -9.98591539417216 0.000025806656623 0.010526117380275 -9.980009473006024 -0.000005722706988 0.008691058743984 -9.926991892590786 -0.000000800328573 -0.031712928924475 -9.703267406799371 0.000006367102707 0.12434887700332 -9.962527884673793 0.000017379134435 0.046294886598449 -10.017628531040643 0.000027428478943 0.099597234447553 -9.97609624848786 0.00003166318697 0.068489577370162 -9.871903282148482 0.000039449946187 0.063238416899921 -9.932587255815349 0.00003797601515 -0.148336944455368 -9.93725458699433 0.000056825547217 -0.011101807189065 -10.122928126659248 0.00006831701054 0.031595175890957 -9.968851647678695 0.000132374199892 0.082827551372869 -9.956128187251275 0.000132722287022 -0.138155219748446 -9.82393313474822 -0.000038495126242 0.113560736776965 -9.829833969509012 -0.000004436698283 0.012832396338428 -10.115970993748217 0.000012872800782 0.007743647803653 -10.045247973919336 -0.000023188049304 0.18978660227232 -9.983208414167098 0.000021780581092 0.127415634580751 -9.994513577733263 0.000017237424239 -0.100973013896188 -10.00270837952381 -0.000037424353587 0.001447253155272 -10.063647188679447 -0.000020373557468 0.118895697067485 -10.043488224063537 0.000009091543319 0.20976599926886 -10.07288300850561 0.000044270079351 -0.1083120007749 -10.026125332607023 -0.000023985118846 -0.147508418638622 -10.054601036447378 -0.000035049701594 0.030479400054079 -9.871245309003694 0.000007187519369 0.214425077128844 -10.1373364560735 0.000027245460318 -0.000853128275437 -9.981338531344466 -0.000004018989364 0.170396244034661 -9.882950899832464 0.000028918903675 -0.068581384138969 -10.068967850495429 -0.000011128818203 0.020441542161086 -9.933322411597288 0.000008832113419 0.168922566595785 -10.026352168814608 0.0000365281974 -0.020119180219484 -9.885432233018344 0.000010252075374 0.03344060529136 -9.977809283993624 0.000007762443808 -0.202635244259923 -9.955253454236981 -0.000042531798043 -0.15099223418303 -10.011977270312091 -0.00001227725955 0.063975684911111 -10.004634840164639 -0.000006803404159 -0.132940064379581 -10.017533497214464 -0.000037221619377 0.073306951728283 -9.931290211266168 -0.000164503317548 0.041145182779063 -10.023654849389041 -0.000177421362456 -0.170716902421058 -10.102422909634033 -0.002624698007292 0.197989397577251 -9.816534148410993 -0.002568757308639 0.03521588202808 -10.126653171274807 -0.011797020004375 -0.046765418086712 -10.213193758229906 -0.01181070402702 0.023880516295768 -9.935830445263953 0.000001737084591 -0.130514210687646 -9.951752945782534 -0.000017789745825 -0.050585526882148 -10.119476447377071 -0.000020460448833 0.173964531283554 -9.89033515974913 0.000030664850205 0.167569111250695 -9.909623534061271 0.000046885908024 -0.067443705077806 -9.990168650252874 -0.00002516794277 0.038237735553973 -10.153779064073198 0.000017612761207 0.051956146156825 -9.861640693011095 0.000012628303509 -0.126855550492326 -10.02037055725771 -0.000034001872442 -0.006014427440974 -9.855534298732376 0.000017226112366 0.009643894010648 -9.967948040466258 -0.00000210779549 -0.080032173596097 -10.047477049369634 -0.000015491671437 0.086643017925944 -10.030558621824952 0.000009511190101 0.042305646991451 -9.973928711243136 0.00000094140753 -0.018774067230492 -10.175260762413636 -0.000010622531739 0.096488867164393 -9.967718992195985 0.000021681465474 0.019630871422569 -9.962562639676261 -0.000001888474786 -0.084745174520853 -10.05832007390975 -0.000005070027247 -0.050417002870304 -10.04475786165783 -0.000025333560111 0.04380209942866 -10.111587390648975 0.000008528211272 -0.045314624244253 -10.033155694225863 -0.000004745105364 -0.054079916481197 -9.790670962270738 0.00000606385493 0.017651181694431 -10.066522626688551 -0.000007764002619 -0.248722999929772 -10.007874693492274 -0.00002541729144 -0.05365333006616 -10.174574266137169 0.000005727617712 -0.017997425961643 -9.971469850251214 0.000186660009088 0.028497707140611 -10.131405308773491 0.000184747443753 -0.046408527311776 -10.012247296550408 0.002600815808945 0.074723678671276 -9.937058346967998 0.002624190206042 -0.042065925383524 -10.005089066421629 0.011795773174443 -0.097441438754315 -9.933107402394771 0.011788664833784 0.121080463255019 -10.103999352037341 0.000033434729177 0.080234240641928 -9.96997816007311 0.00001120417521 -0.014439892791018 -10.040803995013968 0.000002541279574 0.061016811822173 -9.930924943551721 0.000009874621998 0.116018645607321 -9.894559881716283 0.000024043021428 0.061742605632216 -10.028398085766053 0.000010040232887 0.103095106943139 -10.082013422529236 0.000023610199722 0.05105049610827 -10.051272454203245 0.000002425063893 0.01217024843993 -10.059701657859497 0.000002545876427 -0.039378435425043 -10.056209207118499 -0.000032574019533 0.01271507079226 -10.063193430695659 -0.000002652778831 -0.021343158656761 -10.16709378607753 -0.000006722685058 0.031269289331875 -10.118040510605855 -0.000005106921578 0.254045869375965 -10.071272386568902 0.000036738957818 0.081329984258671 -9.749053985417486 0.000009173274856 0.074103133860254 -10.088601221979761 -0.000002279237774 -0.136191929994284 -9.922684860766685 -0.000024445144664 0.002748967854918 -10.03499360244974 -0.000017186283347 0.056090013245186 -10.019914128049704 -0.000006748006715 -0.1447968088496 -9.988751895816552 -0.000028787461589 -0.083544882093939 -10.162325787661445 -0.000035611147926 0.136757993568569 -9.890447162475018 0.000043106784977 -0.041082502599393 -10.166846556846039 -0.000009451908882 0.123781021026436 -10.101097351335644 0.000008141411793 -0.075500653157867 -9.931898066495023 -0.000027647042851 -0.11271835827675 -9.917232164626265 -0.000219820929626 0.106976641135673 -9.96682589376779 -0.000169265260914 -0.125622094707253 -9.889574023287476 -0.002638222704556 0.006601034517118 -9.875426495932379 -0.002616066115785 -0.085824281319063 -10.083303755264764 -0.000011954334641 -0.079413749298373 -9.997223252347155 -0.000014149041645 0.088065974942454 -9.975427143674553 0.00001522662506 0.012701044353723 -9.868918079432955 -0.000021463233253 -0.138782571278893 -10.123669986791223 -0.00004618939596 -0.019877358183076 -10.000200390657948 -0.000015476175663 -0.102883550221155 -9.897510722678458 -0.000028560723728 0.133476075869502 -9.996947629153658 0.000018747615062 -0.006275580884406 -10.080981220142338 0.000018385615418 -0.138352576935295 -10.00710127443701 -0.000015254878798 -0.026948901456824 -10.016678664275224 -0.000006188353923 0.152155030459218 -9.919944688286613 0.00004359205365 0.012375333906374 -10.010869707639726 -0.000005622992096 -0.015136043461381 -9.838706197925349 -0.000013830682181 0.052668049511346 -9.842347721326165 0.000020199236927 0.01569165115759 -9.97276377491565 0.000000273110791 -0.01530093620676 -9.988981196946394 -0.000004750318452 -0.079812769772431 -10.092016158926244 -0.000011925815177 0.094849752221904 -10.084916690758543 0.000018321203154 0.021776745009787 -10.034243980176575 0.000021757661756 -0.106054753522098 -9.872259188900751 -0.000009476097245 -0.150254524860092 -10.225966379393608 -0.000004491253433 0.11482271938936 -10.130304878118244 0.000031141271941 0.027043103880615 -10.099625552297431 0.000040751109324 -0.070959663270495 -10.02099832637561 0.000013218749606 -0.087870716617807 -9.963798497210428 0.00018482245786 0.039314414336992 -10.134251641286498 0.000202906488653 0.206946609342412 -9.97014451794422 0.002657040213221 -0.012603666151616 -9.959229243339591 0.002613064581903 0.031903982510166 -10.045049729127088 -0.000003993810225 -0.056230863508815 -9.998568831869255 -0.000020217516416 -0.046280880024109 -10.132175010483618 -0.000014526076886 -0.016943305796174 -10.121011787696721 -0.000010675800901 -0.179572377684319 -10.061890710438506 -0.000048868515593 -0.106379048549056 -10.011358562884132 -0.000015308589089 0.10419366466043 -9.932825185451208 0.000018004166643 0.011000639538157 -10.130391459191092 -0.000011178398063 -0.167602379808027 -9.85710408568325 -0.000040517887938 0.096443028871036 -9.861286391676845 0.000023063950011 0.098246404368094 -10.23152065912225 0.000005339646133 0.124604955852814 -9.969983591846859 0.000034815907153 0.124503085126093 -10.054539280886987 0.000024364671619 -0.023612940149184 -10.07997984058955 -0.000023595433538 0.121999743129406 -10.044483304991902 0.000020713780692 0.002573866875891 -9.995476608043422 -0.000014185476645 0.028176341733938 -9.972965608624138 0.000025908505701 0.139450125146689 -9.91186090331774 0.000028552258874 0.030174457062511 -9.767798030399435 0.000002028631359 0.008286590231236 -9.729232160655899 0.000012347239929 0.144254314860474 -9.943416445865985 0.000033630907741 -0.065189537973638 -9.940128015507868 -0.000032233911968 0.070349584501313 -9.952113386193428 0.00001580991478 -0.102602882197652 -9.946684680089259 -0.000049150825003 -0.031597074631844 -10.066053852373397 -0.000017890121621 -0.015521815812938 -10.176880695974443 -0.000085912859413 -0.090640442605675 -10.061233481891589 -0.000115962652598 0.015194717070065 -9.964651968886351 -0.000179820744869 -0.153300986730144 -9.988585766213733 -0.000204015526019 -0.076005674987198 -10.043060722456543 0.000010990563428 0.083758721430961 -9.80236591657118 0.000021930591162 0.047499467813039 -10.033833226628857 0.000007960727793 0.146727515594746 -9.890566223856286 0.000021008066191 0.043856688043556 -9.958838548609304 0.000022256511114 0.134407203992575 -9.825860965285093 0.000027834742791 0.07239662219977 -9.925040479213745 0.000022680187044 -0.020555023408694 -10.040210092082759 -0.000008547048508 -0.109346245682184 -10.047539508148619 -0.000027256077555 -0.09756550045007 -10.206706839921695 -0.000019991333597 0.027800319730647 -10.075211113264388 0.000000223191338 -0.038386163315557 -9.919367003850873 -0.000027043937782 0.023344447778695 -10.086032907833676 0.0000004730866 0.075289127073623 -9.93895413558432 -0.00000175904161 -0.126633895536558 -10.166202287993153 -0.000027961864168 -0.069882791582636 -10.149735210733212 -0.000006296554814 0.015624932915151 -10.067717065207862 -0.000006608993743 0.089363824166783 -10.015776413510205 0.000034761875478 0.07621435820615 -9.965574675785588 0.000006437701581 -0.247837455714476 -10.177752431357714 -0.000032260273211 -0.073298536515018 -10.096927971285833 -0.000008922972291 -0.15242064861491 -9.954648559104129 0.00000408200657 -0.03826540305503 -10.07211839729295 -0.000004411387474 0.16592556795095 -10.013500340710273 0.000061419667158 -0.006360483270196 -10.138195600695584 0.000035790385328 -0.058146828376197 -10.090737593446606 0.000071087671275 -0.060784102816376 -9.908715606368929 0.000087744707593 0.107295078475791 -9.874800951734644 0.000190911256896 0.043671454330399 -9.790382328938705 0.000203272500932 -0.01332753414396 -9.872711151586252 -0.000010619443376 0.059566669507562 -9.967744805565658 0.000023318408889 -0.0393443704199 -10.126701161025734 -0.000005603992597 0.025889138207667 -10.026148862446966 0.000009907476613 0.117813529081773 -10.118745783386595 0.000031013711361 -0.211012011555214 -9.955442878864586 -0.000033876105892 -0.064543445540828 -9.789441092691135 -0.000014816467042 0.17788332514955 -10.032652638784231 0.000027324314314 0.001518172823736 -10.017710996006132 0.000008255483567 -0.061214090865118 -10.081131724238771 -0.000010928557046 0.183288613869938 -10.05294116720961 0.000028972772596 -0.121674979616715 -9.930490195800987 -0.000029141051506 -0.118285927731023 -10.063375610833768 -0.000029351477848 0.052742563428908 -10.269426252978013 0.000009904779508 -0.014602836519813 -10.041962443636187 -0.0000241492993 0.017935692588944 -10.181499761158374 0.00000309694263 -0.10958000511134 -10.047841325626056 -0.000023638373601 -0.019564997923447 -9.887728624958664 -0.000003827596463 0.066993397183759 -9.896053068194298 -0.00000799024039 -0.032009797678417 -10.100442910970868 -0.000005580275429 -0.016899977222902 -10.090377965835073 -0.00002749230323 0.008813600076276 -9.959592156248133 -0.000013211201548 -0.045588473538604 -9.959413439434755 -0.00002513589781 -0.161084924585687 -10.089957105926837 -0.000210876845341 -0.240375699156041 -9.824926814903824 -0.000245963798952 -0.05383290452118 -10.014206792871695 -0.002630063615468 -0.064090946706128 -10.048648517768095 -0.002638755761978 0.11716037742722 -9.95105281750741 -0.011801293432206 -0.090298841325479 -9.999410848529138 -0.011812383140696 -0.232657058134306 -10.101988494711206 -0.000047170446837 0.034591724013015 -9.886605671218192 -0.000006873375624 0.029299713282675 -10.137938589920092 -0.000007546258814 0.104274464655763 -9.940536832757013 0.000003370353713 -0.050519846919478 -10.234149918028001 -0.00001893855945 -0.019521477405774 -9.940962983911962 -0.000014273092516 0.000331207660672 -10.02008856928359 -0.000017054035418 -0.087595377609034 -10.059580071995244 -0.000018830020034 0.074102259855617 -10.137856174405162 0.000014385742111 0.131189463220562 -10.087710055967243 0.000028099896508 0.067463927344123 -10.039069158407754 0.000002574607387 0.057782327724704 -9.809292307342449 0.000011396533924 0.044409100700923 -9.98796378923303 -0.000000315921163 0.195536175388474 -10.09442401224919 0.000042832415418 -0.02048848783036 -9.936467162734555 -0.000009975573584 -0.046633828254731 -10.027364489421773 0.000008682856644 0.091604902915834 -10.062984599075648 0.000012347532497 -0.080865257938851 -9.941068938857562 -0.000004475924577 0.033275872262768 -9.934822184797765 0.000000568493152 -0.108816230614266 -9.953166884049708 0.000017048213064 0.038304896465512 -9.919464900995486 0.000008823585818 -0.172782075881763 -9.963448861860009 0.000001161511847 -0.031878069762468 -9.96919466052314 0.000008543897769 -0.02563514897942 -10.036865114220335 0.000171749570056 -0.01445633546513 -9.887930504062567 0.000208092563848 0.224965664390331 -10.19265072919897 0.002673353648436 -0.009366656589183 -9.946657223710332 0.002637023370047 -0.034388210492445 -10.052385469998853 0.011803306281666 -0.117806125139293 -10.063619696761 0.011799790953258 0.070457377152264 -9.97873668773488 0.000014387489307 -0.15424677145628 -9.866075319133786 -0.00003209192849 0.033701553233905 -10.233369433281629 0.000010054725367 0.001842823493167 -9.805822956605981 0.000004396487102 0.093158513069171 -9.850029993911789 0.000011811750574 0.004915721943484 -9.903533789401916 0.000005430394281 -0.113547840440247 -9.923155495218245 -0.000038269805146 0.175633186493866 -10.027842031432824 0.000014758057415 0.050413500767604 -10.056381892932855 -0.000001195055917 -0.123899015856783 -10.117206728226771 -0.000025058326559 0.048158863160698 -10.11080975237903 -0.000011277312787 -0.106476865394212 -10.024475443100661 -0.000015953189182 -0.128566962677914 -10.051221964526242 -0.000020963202229 0.033303276842589 -10.044611515537738 0.000015050209064 0.166663186353045 -9.979390331445614 0.000033590644729 0.015381441453232 -10.163287605130529 0.000010424565852 -0.151281791249203 -9.977154106346104 -0.000023229809869 -0.146598107803973 -10.046082632059736 -0.000027093649744 0.170269587100964 -10.016613450136148 0.000008679703328 -0.089224036458391 -10.008284802335664 -0.0000191630178 0.080163324896452 -10.133464728424777 -0.000012159612792 -0.089975535614389 -10.069725580328567 -0.000077620379788 -0.221056849805829 -10.178034002887919 -0.000108633232473 -0.168293714834545 -9.929114795772806 -0.000274827750207 0.106338420440412 -9.994040815270345 -0.000230819317048 0.01379447967806 -9.999677804077677 -0.002724662698975 0.123318017589384 -10.041215562903 -0.002691264898316 0.017709069054742 -10.201117221920883 0.000011119491111 0.076173152384575 -9.86740969620605 0.000011755104842 0.111358566859031 -9.990231369025551 0.00000721274834 0.018463022387643 -10.087056766912948 0.000015760418362 0.033484240735215 -10.012980970314819 0.000006180465662 0.009165078843759 -10.054679307386348 0.000002132547115 0.148399628044341 -9.991019372909593 0.000023505664346 0.076393134856342 -10.013389837133875 0.000014576526718 0.035925185888247 -10.045455056453097 -0.000000337732869 0.076447370946161 -10.09884881190159 -0.000004968925359 0.133045543997707 -10.011689466939067 0.000029003106094 0.011440698092464 -9.854736259031101 0.000010521163956 0.048213015020219 -10.175721923328895 0.000009372773704 -0.061106405170528 -10.073461213907134 -0.000017896930287 0.146183479539469 -9.925994654735165 0.000042764518035 -0.106128030869186 -9.934640191206004 -0.000016174060044 0.094316169003857 -9.903593656244807 0.000014343199623 -0.136031242955738 -9.898456277978632 -0.000017796608167 0.036585870621084 -9.953825689491419 0.0000026292904