<?xml version="1.0" encoding="UTF-8" standalone="no" ?>
<VTKFile byte_order="LittleEndian" type="UnstructuredGrid" version="0.1">

  <UnstructuredGrid>
    <Piece NumberOfCells="0" NumberOfPoints="801">
      <PointData>
        <DataArray Name="mass" NumberOfComponents="1" format="ascii" type="Float32">1 1 1 1 1 1 1 1 1 1 1 1 1 1 1 1 1 1 1 1 1 1 1 1 1 1 1 1 1 1 1 1 1 1 1 1 1 1 1 1 1 1 1 1 1 1 1 1 1 1 1 1 1 1 1 1 1 1 1 1 1 1 1 1 1 1 1 1 1 1 1 1 1 1 1 1 1 1 1 1 1 1 1 1 1 1 1 1 1 1 1 1 1 1 1 1 1 1 1 1 1 1 1 1 1 1 1 1 1 1 1 1 1 1 1 1 1 1 1 1 1 1 1 1 1 1 1 1 1 1 1 1 1 1 1 1 1 1 1 1 1 1 1 1 1 1 1 1 1 1 1 1 1 1 1 1 1 1 1 1 1 1 1 1 1 1 1 1 1 1 1 1 1 1 1 1 1 1 1 1 1 1 1 1 1 1 1 1 1 1 1 1 1 1 1 1 1 1 1 1 1 1 1 1 1 1 1 1 1 1 1 1 1 1 1 1 1 1 1 1 1 1 1 1 1 1 1 1 1 1 1 1 1 1 1 1 1 1 1 1 1 1 1 1 1 1 1 1 1 1 1 1 1 1 1 1 1 1 1 1 1 1 1 1 1 1 1 1 1 1 1 1 1 1 1 1 1 1 1 1 1 1 1 1 1 1 1 1 1 1 1 1 1 1 1 1 1 1 1 1 1 1 1 1 1 1 1 1 1 1 1 1 1 1 1 1 1 1 1 1 1 1 1 1 1 1 1 1 1 1 1 1 1 1 1 1 1 1 1 1 1 1 1 1 1 1 1 1 1 1 1 1 1 1 1 1 1 1 1 1 1 1 1 1 1 1 1 1 1 1 1 1 1 1 1 1 1 1 1 1 1 1 1 1 1 1 1 1 1 1 1 1 1 1 1 1 1 1 1 1 1 1 1 1 1 1 1 1 1 1 1 1 1 1 1 1 1 1 1 1 1 1 1 1 1 1 1 1 1 1 1 1 1 1 1 1 1 1 1 1 1 1 1 1 1 1 1 1 1 1 1 1 1 1 1 1 1 1 1 1 1 1 1 1 1 1 1 1 1 1 1 1 1 1 1 1 1 1 1 1 1 1 1 1 1 1 1 1 1 1 1 1 1 1 1 1 1 1 1 1 1 1 1 1 1 1 1 1 1 1 1 1 1 1 1 1 1 1 1 1 1 1 1 1 1 1 1 1 1 1 1 1 1 1 1 1 1 1 1 1 1 1 1 1 1 1 1 1 1 1 1 1 1 1 1 1 1 1 1 1 1 1 1 1 1 1 1 1 1 1 1 1 1 1 1 1 1 1 1 1 1 1 1 1 1 1 1 1 1 1 1 1 1 1 1 1 1 1 1 1 1 1 1 1 1 1 1 1 1 1 1 1 1 1 1 1 1 1 1 1 1 1 1 1 1 1 1 1 1 1 1 1 1 1 1 1 1 1 1 1 1 1 1 1 1 1 1 1 1 1 1 1 1 1 1 1 1 1 1 1 1 1 1 1 1 1 1 1 1 1 1 1 1 1 1 1 1 1 1 1 1 1 1 1 1 1 1 1 1 1 1 1 1 1 1 1 1 1 1 1 1 1 1 1 1 1 1 1 1 1 1 1 1 1 1 1 1 1 1 1 1 1 1 1 1 1 1 1 1 1 1 1 1 1 1 1 1 1 1 1 1 1 1 1 1 1 1 1 1 1 1 1 1 1 1 1 1 1 1 1 1 1 1 1 1 1 1 1 1 1 1 1 1 1 1 1 1 1 1 1 1 1 1 1 1 1 1 1 1 1 1 1 1 1 1 1 1 1 1 1 1</DataArray>
        <DataArray Name="velocity" NumberOfComponents="3" format="ascii" type="Float32">0.111247970647173 -10.033638489226664 0.000031425019514 0.060807788528232 -9.936343536580901 0.000006583243121 -0.071212018927981 -9.884226781700924 -0.000008819055575 -0.171908403287306 -9.95823342590614 -0.000022496497811 -0.040038056831992 -9.772632949659997 -0.000045325138817 -0.227221158885324 -9.977387741644447 -0.0000720046897 0.086642172484942 -9.861346263952045 0.000014736520294 -0.103272827602958 -9.969424860628628 -0.000025161712975 -0.035845742667236 -9.969241611966162 -0.000037928369989 -0.111401618430416 -10.032353497101999 -0.000031127143338 0.004709968946608 -9.876224239155238 -0.000050111610171 0.084495878502789 -10.151848129058427 0.000018134555619 0.222443611631801 -9.960224839533593 0.00004350152398 -0.000647809230193 -9.953048103961283 -0.000007678253085 -0.075001884966064 -9.902174530427697 -0.000027843688724 0.015422260182587 -9.845628161724354 -0.000002070817827 -0.022801174999873 -9.911109667075966 -0.000005577775421 -0.132868994444956 -10.089047592260521 -0.000041280798491 0.005404088080362 -10.085475493762107 -0.000018575581376 -0.106203593892752 -9.944665288730205 -0.000001372558377 0.07869924332668 -10.030466288809581 0.000014338589878 -0.006942383653512 -10.070660371713471 0.000019463594866 -0.170533529577559 -9.970495434397648 -0.000054321963482 -0.064108305656007 -9.867784092820921 -0.000007915792337 0.015579818131335 -9.792871932745431 0.00002758099479 0.003856970442969 -10.055634938074242 -0.000000787054808 -0.010570799843142 -9.926043878022279 -0.000028731172608 0.031931425324646 -9.987698529877207 0.000011621322969 -0.089145819295355 -9.898962395199208 -0.000047860609149 0.131740921850571 -10.146517657758942 0.000038280749021 0.050573518823496 -10.079486927924515 0.000017613723817 -0.015957145964404 -9.899651798322727 -0.000032046404819 0.097421655850442 -10.049014014135768 0.000030650644949 -0.024258176358287 -9.964670106160911 -0.00002876863335 -0.107419500569034 -9.866838731098172 -0.000027334006777 0.05289436267393 -9.989403338957274 0.000003221281978 0.039721935649652 -9.90920528316801 0.000034783793348 -0.011118213143182 -9.922388228338294 -0.000016292133449 -0.039477952493225 -9.878728513997746 0.000003333672392 0.026463057112228 -9.941465057788363 0.000016693836226 -0.009234427145833 -10.148813173011998 -0.000003936152759 0.194116751783756 -10.092976822164701 0.000061362013989 0.079943311952186 -10.146375313056406 -0.000001093738535 0.101146724566827 -10.068163898150948 -0.000002860743744 -0.029014985364491 -10.150199555133277 -0.000016739298772 -0.08341486969403 -10.058964864846077 -0.000012555521567 0.141764019662457 -10.209083136886564 0.000024869343044 -0.002802632306985 -9.84014218498592 0.000026558656934 0.153837656906849 -10.097820283627314 0.000046894699393 0.133917389635915 -10.069857405950904 0.000052801357657 -0.076362477184023 -10.098796556268384 -0.00000579956347 0.049396297432964 -10.148507305741647 0.000004535601245 -0.070415563801859 -9.953519955891251 -0.00003445980417 -0.035054002558233 -9.97322886464732 0.000006088125337 -0.069393159579629 -9.949812694002299 -0.000017224677821 -0.066212893174577 -9.996437798730661 -0.000009661172449 -0.06724437212364 -10.05364802206636 -0.000028352960884 0.083417200671185 -9.934521182545211 0.000036320058801 0.00757525697273 -9.981271379598708 -0.000007464894086 0.068792435069273 -9.86887487531579 0.000037454730832 0.003916115510371 -10.091491917042141 -0.000024609161938 -0.01592265736967 -9.858565817457295 -0.000036371058084 0.043822811961043 -9.84888114288168 -0.000004737138569 0.035925230731405 -10.120586771702733 0.000009907175691 -0.111966610823812 -10.035677955512474 -0.000024277186018 -0.205459324280176 -9.924674524671861 -0.000028640784122 0.22310801531283 -10.131772400650272 0.000073098983433 0.029779144965996 -10.062495280096829 0.000030749650017 0.019266894399744 -9.84037841632481 -0.000010801237759 0.020396599998126 -9.900921801740418 0.000020896457579 0.13542231725473 -9.929507128473436 0.000057489208112 0.006981973242255 -9.993387170169898 0.000014525701455 0.209520059218949 -10.00360683831436 0.000077073259795 -0.034893824255165 -9.96643089453111 -0.000006348282302 0.074671621872678 -10.125168309903291 0.000005558081396 0.061617606574201 -10.128230143132852 0.000018560089484 0.115407582688108 -10.104955648116055 0.000037053476714 -0.072220916689134 -10.112663826457339 -0.000030227386048 -0.064457612506479 -9.98020099454226 -0.000020822772422 -0.119313090074546 -9.935499567378752 -0.000038593882287 0.001089595959969 -9.952122144714172 -0.000008605162408 -0.175085918211535 -9.96248501344315 -0.000059862935166 0.033807145508787 -10.059077152477208 -0.00001358391871 -0.075465930126633 -9.756416252670668 -0.000006571451891 0.066549854770264 -10.007102831480639 0.000026816776611 -0.043708066387144 -9.907169621667391 -0.000010592232791 -0.168971384604794 -9.893482602334185 -0.000045398202426 0.062348027388289 -10.050114713565097 0.000015019688417 0.203287969399203 -10.019214056491466 0.000073123234011 -0.017846143042896 -10.195006746843868 0.000010346408505 0.057733394198749 -10.081966403284815 0.000035838522219 0.011616185781712 -10.054023138564737 0.000006656411391 -0.074058907569901 -9.822492326592576 -0.000027047716847 0.141426768404486 -9.888719516514458 0.000044915029005 -0.05203689083582 -10.106443207776287 -0.000049059353206 0.13621027131901 -9.842294916961562 0.000049261962837 0.119363664685713 -10.0884412313645 0.000015834413899 0.064950720099581 -10.079770448440899 -0.00000085478998 0.053110462759852 -9.977477130568641 0.000009792461846 0.079526288340167 -10.125219006746596 0.000024991674249 0.006812293865801 -10.086338431526521 -0.000024565761548 -0.035907272382813 -9.94440579847881 -0.00003401092294 0.027925828147033 -10.060169715924738 0.000005743648254 -0.082606668871204 -10.029440544689777 -0.00005024738751 0.151507210593006 -9.817667717512823 0.000029100198414 0.097519367458959 -10.123238055048605 0.000021693684429 0.095686637161053 -10.072402885677272 0.000031312585728 -0.056590905653578 -10.102845816826168 -0.000014751917068 0.098376774543032 -10.050260461713792 0.000027021837655 -0.131774966708885 -10.026871843706095 -0.000042835159749 0.10257235951917 -9.923187229372612 0.000027090340248 -0.073987693535936 -9.964192651903968 -0.000022714715197 -0.056134710879423 -9.868055307794423 0.00000378400935 0.039891764728863 -10.032110087334482 -0.000004560827645 0.142245995810602 -9.975478720562126 0.000077491624436 -0.028176860956528 -9.944384846815138 0.000007396278264 -0.006664819005981 -9.727727854413493 0.000022525766076 -0.075815817048188 -10.049772017193527 -0.000016625793928 0.112365615637464 -10.002336980032789 0.000039510912581 -0.012328761272745 -9.882106256446404 0.000003073149258 -0.003599196528541 -10.188934860315246 -0.000000752435777 -0.095593476944128 -9.941686242206055 -0.000026324686526 0.042473135923664 -10.077533200574521 0.000003959681905 0.250448776986931 -10.008397646009008 0.000056453592144 0.076182569218871 -9.95040070460813 0.000004708948649 -0.06090825869555 -10.052179265992777 -0.000025770059196 -0.00042410014225 -10.104289117377968 -0.000016479629318 -0.094099072660164 -10.03614723058922 -0.00001595532002 -0.019937198692073 -9.951466888438416 -0.00001644662073 0.076510353413505 -9.978186100507644 0.000017909342776 0.04014904389699 -9.96160136695549 0.000011954160954 -0.005004679667612 -10.209414043166104 0.000005208668705 -0.108801159419423 -9.837467871292283 -0.000078589426306 0.065702980313172 -10.145648735866963 0.000033489407401 -0.0788315139046 -9.970279703636583 -0.000065493808628 -0.089698470607835 -10.138503602859439 -0.000010929774697 -0.026731471863264 -10.064768508429387 -0.000028315946335 -0.011749315096363 -9.930374262723738 -0.000013186378308 0.056055601899109 -10.156868773754804 0.000003107500434 0.072666813895146 -9.880724934429278 0.000047932933484 -0.004505448137984 -10.122924370554415 -0.000006912948408 0.08822667571544 -9.971569764554252 0.00005519505078 0.008848423800148 -10.145605795278506 -0.000012997532608 0.159271587300268 -10.202879939030625 0.000074161432044 0.115398807851194 -10.036889648653437 0.000024752619366 -0.114620032931378 -10.07793040943092 -0.000020621018005 0.135173231866935 -9.919219769142666 0.000025145640428 0.06999873901447 -9.932897662862038 0.000026249116349 -0.03462285984469 -10.063855737774158 -0.000009492822038 0.067931787118212 -9.95936176918744 0.000020287692015 -0.061981465909949 -10.006927659004614 -0.000046176072203 -0.146890024211558 -10.015921485017767 -0.000023548777686 -0.081683692787442 -10.020602681493648 -0.000024432971239 -0.129406219526954 -9.907599923751158 -0.000033240927632 0.025443272891035 -10.020533918025194 0.00001330411234 -0.022407732701542 -9.852443163640936 -0.000021659379328 0.183211661436379 -10.053524933485305 0.000047198048026 -0.096426095631508 -9.977549771199559 -0.000051793289366 0.24961685252747 -9.905742275031413 0.00006386534063 0.118553265298643 -10.171384544611788 0.000011829009964 -0.033527404996744 -9.933388229395373 -0.000033398768875 -0.009094312606608 -10.127334058769931 -0.000009951683149 0.237705084782987 -9.944175199086711 0.000065448465427 0.169259626103058 -9.86508265021037 0.00004453179834 -0.051076020112854 -9.937233203025755 -0.00003930679832 -0.0102454602337 -10.152359572648685 0.000021427385164 0.084846762268187 -10.053308776346675 0.000016338992224 -0.032563921172403 -9.915035262226995 -0.000018348008849 -0.052720818081184 -9.894168415380634 -0.000065480347234 0.009125076822206 -10.025697565264009 0.000005250594278 -0.072438470836055 -9.91751876644312 -0.000063379510372 0.040430874797095 -9.892872657716454 0.00003117709665 -0.070778711437997 -10.101753027324628 -0.000037284256127 -0.124263283711941 -9.953429135577597 -0.000046199146989 -0.072243200920099 -9.968428740150262 -0.000016012208525 0.091447551288393 -9.92947767047629 0.000020630489315 -0.128897379701575 -10.042311567158123 -0.000030990871967 -0.182346446610679 -10.064955980054892 -0.000036705435276 -0.134937327801643 -10.057219622655952 -0.000060547458847 0.011466050939217 -10.120237791087231 0.000020492796855 0.003397378352163 -10.030166769492583 -0.000055343002801 -0.148951110731644 -10.145202156965155 -0.000076727407582 -0.08864991005597 -9.895852354967934 -0.00009918730267 -0.128308268978147 -9.917367851489063 -0.000146076852357 0.009990445658837 -9.928397094031478 -0.000141393513013 0.058523079859363 -9.892615265363309 -0.000151707694556 0.112803506773414 -10.10545058917115 0.000030133582926 0.011620394086737 -9.881091325760572 0.000025202243389 0.127247088733779 -9.847744693826067 0.000040956711942 0.046370574075922 -10.246234463860137 0.000006916957413 -0.086557481932357 -9.862965663489387 -0.00004102936752 0.102790314576635 -9.940618538627348 0.000032672261592 -0.042274023494529 -9.981449544011975 -0.000016447678145 -0.118627855446587 -9.955324583675031 -0.000038126928205 0.175776755686299 -9.940523762009095 0.000078137125447 -0.088135291000883 -10.107117179795054 -0.000036828417951 0.039772110447322 -9.908653097137023 0.000019161921319 -0.10431998733822 -10.052390130735134 -0.000021088247759 0.035028786305156 -9.920942448998655 0.000004460369662 0.108223866496462 -10.131072086635323 0.000026475045156 0.01270018991361 -10.009821784791269 -0.000004100599531 -0.122873039553644 -9.998683738864813 -0.000059118102613 0.095555389224062 -9.949332102243694 0.00002608472943 -0.07998529605055 -9.84481671018696 -0.000027789477864 0.107923134314139 -9.985791174684554 0.000040207773466 0.010524124817795 -9.979484415814939 -0.000009202216081 0.008691292534583 -9.927111434648889 -0.000001507374904 -0.031710892070156 -9.704034372628795 0.000009263975548 0.124355291392903 -9.962494387271144 0.000026463477538 0.046304072597711 -10.017046656722028 0.000040662883954 0.099608530834296 -9.976010506002009 0.000047287476233 0.068501293804144 -9.872240820108182 0.00005402722171 0.063249340236083 -9.932821081986473 0.000051732535105 -0.14832480407708 -9.937867629898907 0.000066461395234 -0.011085645314106 -10.12180834481185 0.000084418858386 0.031631067707083 -9.970763414675622 0.000171767417497 0.082863784551803 -9.954392224192095 0.000172305269329 -0.138169799532398 -9.82430905887847 -0.000060138835676 0.113558483698743 -9.830103484983622 -0.00000692056438 0.012838468267237 -10.115429366322385 0.000020118529095 0.007734595412396 -10.044902432481607 -0.000036230582605 0.189794779281399 -9.983406806277506 0.000034041876453 0.127422862644914 -9.994669517411179 0.00002694473114 -0.100988215655349 -10.002738093348269 -0.000058459220592 0.001438913245555 -10.063569141441107 -0.000031824420921 0.118899043512555 -10.043412549852395 0.000014221300708 0.209783432314701 -10.07284693501958 0.000069198328555 -0.108321201929791 -10.025947947825646 -0.000037453110395 -0.147521586721539 -10.05473786260748 -0.000054737432272 0.0304827447668 -9.871586013547788 0.000011259973902 0.214435451232845 -10.13690654947343 0.000042614646064 -0.000854459192106 -9.981308278733557 -0.000006230387432 0.170406720204126 -9.883338718845668 0.000045277314581 -0.068586085233439 -10.068799600482359 -0.000017291473295 0.02044462473179 -9.933195404571311 0.0000139889264 0.168936059515095 -10.026343791967635 0.000057255405504 -0.020114645456371 -9.885586543490094 0.000016473640923 0.033443307491248 -9.9779135779141 0.000012581284134 -0.20265092239015 -9.955234831773367 -0.000065004462451 -0.150994767962621 -10.011934842701969 -0.000017742622721 0.063975915026824 -10.004502768020489 -0.000003702877323 -0.132950482353562 -10.017508475074958 -0.000051230297688 0.073269150877347 -9.931752829391131 -0.000197874472052 0.041101727099438 -10.023226842006453 -0.000218063912579 -0.171374086606142 -10.103524001659043 -0.003284453044287 0.197352772505215 -9.816010345100965 -0.003197055500614 0.032267035814757 -10.128573918217585 -0.01474465218303 -0.049719208878234 -10.21074169608033 -0.014766029189857 0.023881497205107 -9.936090802521063 0.000002705986995 -0.130519994578634 -9.951648149059997 -0.000027805677951 -0.05059345360362 -10.118966637125853 -0.000031982419696 0.17397625217602 -9.890546192651787 0.000047897245386 0.167586939035289 -9.910209140751618 0.000073251180423 -0.067454440671918 -9.989872609789744 -0.0000393312575 0.038244686257081 -10.153292588099426 0.000027508329594 0.051961158472086 -9.861795499828313 0.000019719108131 -0.126868405515158 -10.020477640093642 -0.000053140557028 -0.0060069454713 -9.855792580222847 0.000026892721802 0.009643095902264 -9.968094259971721 -0.00000331570936 -0.080037710003283 -10.047134206525264 -0.000024246058598 0.086645776912341 -10.030664901518184 0.00001482960799 0.042305340786247 -9.974016629703035 0.000001418150582 -0.018778280763262 -10.174797633992091 -0.000016647357424 0.096496091557 -9.967842754625442 0.000033794601594 0.019630662809554 -9.962943698479627 -0.000003045348481 -0.084747334071563 -10.058275201699271 -0.000008111904631 -0.050427183765616 -10.044636648484758 -0.000039768980648 0.043804093473738 -10.111114862124365 0.000012877590552 -0.045316098603517 -10.033207706078958 -0.000007866701057 -0.054077580632922 -9.791366137926772 0.000008037057017 0.017647338523403 -10.066612717324832 -0.000013576461784 -0.248735003779759 -10.007572162305658 -0.000046648562797 -0.05365386081431 -10.174355075839896 0.000002019202582 -0.01795098828736 -9.971715693087921 0.000232500320137 0.028542590481785 -10.131061674658731 0.000229509906873 -0.04576013299062 -10.01347963794934 0.003247127689891 0.07538095796712 -9.93601097175417 0.00328365876352 -0.039117532565244 -10.007051296477465 0.014742707485855 -0.094495574520361 -9.931159793216265 0.014731601809592 0.121093870510162 -10.103745244219551 0.000052252155535 0.080238107637815 -9.970095353812447 0.000017527283286 -0.014438526559276 -10.040702685550652 0.000003983321664 0.061020407122736 -9.931101876822581 0.00001544700923 0.116028185430292 -9.894986088665508 0.000037595099173 0.061746388488638 -10.028300359747966 0.000015709508803 0.103104624813823 -10.081742939417436 0.000036908658726 0.051051063186069 -10.051252467935111 0.000003815960155 0.012170833389809 -10.059733348922164 0.000004007266966 -0.039391432438457 -10.056346646677959 -0.00005086933544 0.012713491760885 -10.063262796086207 -0.00000411093261 -0.021344822594104 -10.166826196323367 -0.000010457424419 0.031267215495224 -10.117485421373697 -0.000007929261533 0.254059889285171 -10.071418939839845 0.000057492294194 0.081333948547638 -9.749757587142188 0.000014409522071 0.074102041721031 -10.088511080538328 -0.00000341911373 -0.136199934850768 -9.922586731970714 -0.000038054466997 0.00274204613984 -10.035006523490235 -0.00002657002395 0.056086958318667 -10.019969007872072 -0.000010265899009 -0.144807128768705 -9.988683295875544 -0.000044331915422 -0.083558939389417 -10.162146137497285 -0.000054984416203 0.136775675783868 -9.890856951742276 0.000069234551357 -0.04108518176003 -10.166525691827507 -0.000012884553691 0.123787464522214 -10.100637247534992 0.000020589258121 -0.07550790631259 -9.932202186210253 -0.00003533662696 -0.112776778239494 -9.917998765881677 -0.000282701873731 0.10693746808144 -9.966102998750284 -0.000203695204737 -0.126284866995739 -9.890915277356122 -0.003303568294591 0.005948033673718 -9.874234141472156 -0.003268958856378 -0.085828742480671 -10.083053661369702 -0.000018693442771 -0.079418560507582 -9.997166873980909 -0.000022123628988 0.088071460700936 -9.975760314733012 0.000023778635263 0.012692296552874 -9.869250712926597 -0.000033553969251 -0.138800762104251 -10.123181930939888 -0.000072185246591 -0.019883890261497 -10.000025293946312 -0.000024204234881 -0.102894468433032 -9.898041608581931 -0.000044650145519 0.133482175745522 -9.996967880873004 0.000029271224124 -0.006267549143243 -10.080662857228074 0.000028702167285 -0.138357452514548 -10.006978163512661 -0.000023871191923 -0.026951355019338 -10.016755317928286 -0.000009702757975 0.152172526206412 -9.919950831361392 0.0000680599219 0.012372613578375 -10.010656295419802 -0.000008835759826 -0.015142337522047 -9.838982522799821 -0.000021689587033 0.052676132443727 -9.842756166722308 0.000031476806418 0.015691860723022 -9.972745484511684 0.000000285056057 -0.015303029538635 -9.988916825694316 -0.000007563152152 -0.079817440571338 -10.091789042851158 -0.000018921132039 0.094856700525291 -10.084515034793084 0.000028349404558 0.021784781221973 -10.034576707532299 0.000033339491037 -0.106058227934717 -9.872860825394602 -0.000015458053731 -0.150256820317512 -10.22555783971451 -0.000008904279853 0.114833402119174 -10.129823096775763 0.000046774484104 0.027055442132545 -10.099664835281095 0.000055821237986 -0.07095846868523 -10.021239977666303 0.000012792468632 -0.087825448176857 -9.964544541576776 0.000228010941462 0.039366203056917 -10.133315407533082 0.00025626615062 0.207616237371348 -9.971439159016358 0.003332981995847 -0.01195109235899 -9.958147728357485 0.003264265551493 0.031901903991168 -10.045100401399321 -0.000006219825149 -0.056238193724696 -9.99878657996128 -0.000031571553368 -0.046286946234797 -10.131975202034653 -0.000022671032487 -0.016947609062118 -10.120710094651464 -0.000016655574912 -0.179590908132475 -10.061816488429209 -0.00007633796047 -0.106384658768499 -10.011655903753155 -0.000023891194678 0.104201461161666 -9.932889035213561 0.000028163343641 0.010996319878019 -10.129896213485258 -0.000017425688861 -0.167617869324994 -9.857674262360344 -0.000063267611618 0.096451382960678 -9.861768115645496 0.000036096654871 0.098247650459906 -10.23081826491901 0.000008395313317 0.124619095319928 -9.96998187707015 0.000054486181038 0.124511866933992 -10.054762571162263 0.000038157775426 -0.023621642427374 -10.079734146577414 -0.000036751813542 0.122007213898211 -10.044399596287155 0.000032503862753 0.002567964389169 -9.995483919340355 -0.000021931690677 0.028187892550079 -9.972789576291046 0.000040709930934 0.139460965461384 -9.911733615778608 0.00004507839597 0.030175801961026 -9.76828407103514 0.000003634668393 0.008292691162226 -9.729743681125377 0.000020372369017 0.144267790144229 -9.943200367074297 0.000053634091676 -0.065201083287153 -9.939869174438064 -0.000047290066322 0.070356827820391 -9.952238205335659 0.000027788565538 -0.102617351813925 -9.947048634331207 -0.000066751080603 -0.031599714966759 -10.065834048086908 -0.000017893620081 -0.015541296881823 -10.176964357869858 -0.000104036461441 -0.090672656235993 -10.060495818990834 -0.000150995329134 0.015150213590649 -9.966865062584327 -0.000223385885574 -0.153354354678686 -9.986733592267317 -0.000261193992548 -0.075999934637869 -10.042743643254202 0.000017147684444 0.083766886191716 -9.802783879204368 0.000034241562632 0.047502402016663 -10.033751135731968 0.000012415367515 0.1467350328277 -9.890365715457873 0.000032803572218 0.043865234258991 -9.958895856537666 0.000034757250009 0.134418049930366 -9.826223518425534 0.000043462489477 0.072405185465505 -9.925236527332906 0.000035413968543 -0.02055864926515 -10.040148458059145 -0.000013390774022 -0.109356810115524 -10.04742022317421 -0.000042630049616 -0.097572454503285 -10.206128988464947 -0.000031296345501 0.027800104971217 -10.075188916152541 0.000000295755052 -0.038397327031219 -9.919753853885348 -0.000042335136331 0.023344535524012 -10.086121507208892 0.000000659642912 0.075287952338831 -9.93920165762896 -0.000002876148483 -0.126644309731063 -10.16597008148557 -0.00004382169138 -0.069884611882862 -10.149291896009297 -0.000010073381148 0.015621728521742 -10.067712549776646 -0.000010555413607 0.089377543266871 -10.016162460904205 0.000053854434371 0.076216079223951 -9.965873236642933 0.000009596205508 -0.247850025524899 -10.177260734257553 -0.000051491668289 -0.073302119724423 -10.096718788332876 -0.000015031509914 -0.15242007976305 -9.955023862089696 0.000003294495044 -0.038268931668871 -10.072224798771096 -0.000009969750616 0.165943626466844 -10.013588107451888 0.000085914133733 -0.006350903597098 -10.137746401588732 0.000045869938517 -0.058133109975209 -10.091015975696195 0.000080863904858 -0.060763231932179 -9.90820939311639 0.000106896405141 0.107343789963576 -9.877022359812251 0.000240712355904 0.043725321883377 -9.788593045497452 0.00026002949942 -0.013332320422641 -9.873154667365672 -0.000016553843753 0.059575250419397 -9.967694486502683 0.000036478079988 -0.039346158855312 -10.126372884401592 -0.000008719838477 0.02589292174352 -10.02598434864497 0.000015521620431 0.117825982843557 -10.118326813758282 0.00004849066653 -0.211024169828982 -9.955632621606245 -0.000052881832879 -0.064550072987354 -9.790159524876264 -0.000023099546069 0.177894272431118 -10.03261637527025 0.000042755273741 0.001521772805492 -10.01746047608623 0.000012959335625 -0.06121795848145 -10.080871580234867 -0.000016990225999 0.18329966299954 -10.052918077890443 0.000045356234309 -0.121686703896149 -9.931126565964121 -0.000045406875941 -0.118297032853244 -10.063333667726763 -0.00004573824472 0.052746864963681 -10.268875284844139 0.000015695387532 -0.014612346972079 -10.041997407924542 -0.000037512680971 0.017937226081632 -10.181240595627525 0.000005249686959 -0.109589298248742 -10.04763408485106 -0.000036527143231 -0.019565745725179 -9.888379275473493 -0.00000511935182 0.066989951996971 -9.8964921711441 -0.000011619885316 -0.032011059809261 -10.099989556491799 -0.000006495377343 -0.01691002823607 -10.08995780636249 -0.000040737894109 0.008811555940141 -9.959970652174938 -0.000012245134807 -0.04559341290525 -9.95938236657539 -0.000030879826433 -0.161139672759631 -10.089838487907704 -0.000267883480449 -0.240443157929647 -9.82523241037498 -0.000322698500722 -0.0544913195183 -10.015520708501116 -0.003289498913126 -0.064753320651716 -10.047005229957978 -0.003303072415631 0.11421154807203 -9.953081357379789 -0.014747708930585 -0.093251958066029 -9.997527256921177 -0.014765034020411 -0.232674577732419 -10.101763785304334 -0.00007374187365 0.034588429207926 -9.886946252274182 -0.000010780146518 0.029296279667847 -10.138017087808761 -0.00001182826006 0.104274983151812 -9.940467765634937 0.000005227303665 -0.050526986185789 -10.233747786958146 -0.000029637012653 -0.019526404894432 -9.941112931428636 -0.000022350138096 0.000324375463958 -10.020517456437434 -0.000026698330858 -0.087601769240129 -10.059462980864545 -0.000029490019378 0.07410767611745 -10.137577567049149 0.000022421154383 0.131200325411527 -10.087324029827998 0.000043824091224 0.067464734046146 -10.039130519713471 0.000003933329037 0.057785945857958 -9.810016026645506 0.000017677506016 0.044408627215107 -9.98796476763569 -0.000000625925765 0.195552707604333 -10.093967394392816 0.00006669925813 -0.020492693933095 -9.936695724296747 -0.000015812308041 -0.046629843559888 -10.027344891633783 0.000013154620511 0.091609778423091 -10.062653242192882 0.000018884147334 -0.080867685494828 -9.941193701433466 -0.000007848195118 0.033275752264409 -9.934965365229594 0.000000026537432 -0.108810013988294 -9.953172163091804 0.000024418933829 0.038307371455463 -9.919544492524164 0.000011565468823 -0.172784919019167 -9.963552592302827 -0.000006586828652 -0.031878725320843 -9.96899739350129 0.000004946314726 -0.025596551201805 -10.037124366493934 0.00020674244831 -0.014402316962387 -9.887961440173109 0.000263528049192 0.225640388121354 -10.193563355642503 0.003357141039989 -0.00870498000347 -9.945436951057577 0.003300375538101 -0.031438935228034 -10.054512605775439 0.014750850587064 -0.114858017949852 -10.061519316603601 0.014745356655082 0.070463062518994 -9.978914856393548 0.000022540079574 -0.154259019096953 -9.866140698419251 -0.000050086973395 0.033705545523601 -10.232549431398262 0.000015771422661 0.001844696480964 -9.806027392798047 0.000006941287617 0.093162385622793 -9.85062485048303 0.000018538544621 0.004917910980288 -9.903567394953877 0.000008560135772 -0.113562714991654 -9.923224457339558 -0.000059704854614 0.175637993735973 -10.027797429807409 0.000023167714894 0.050413603091864 -10.056285190966163 -0.000001766918139 -0.123908229245204 -10.116974846073141 -0.000039007273423 0.048154597784702 -10.110665216459031 -0.000017472913597 -0.106482885169123 -10.024616395029588 -0.000024689063383 -0.128574833996825 -10.051204542294492 -0.000032515645711 0.033308586413006 -10.044740346081321 0.000023947882842 0.166676057310404 -9.979480198832062 0.000052903714526 0.01538626177025 -10.162989204153341 0.000017111926704 -0.151289916838745 -9.977204352615269 -0.000035470428398 -0.146607553040353 -10.046185993014985 -0.000040478537067 0.170273001571537 -10.016704437478694 0.000015415581002 -0.089229267368196 -10.008427282946956 -0.000025015224428 0.080160673092658 -10.13336258979937 -0.000014077419464 -0.089998902434655 -10.069521164712029 -0.00010471410429 -0.221092088730731 -10.177681908358906 -0.000153160592744 -0.168362380368539 -9.929956046156969 -0.000345582662454 0.106287026297028 -9.993770194483472 -0.000276833779257 0.013114750155049 -10.000893806683903 -0.003403655967358 0.122651294894713 -10.039847354746856 -0.003351473542342 0.0177129272679 -10.200422293692807 0.000017322009452 0.076177251222886 -9.868122252932507 0.000018305427466 0.111360525573128 -9.990534732990819 0.000011211313063 0.018469897016186 -10.086727868507111 0.000024549325793 0.033487400130745 -10.012922094320821 0.000009582615007 0.00916622418838 -10.05466341309886 0.000003249288655 0.148408440065838 -9.991118063434959 0.000036654355486 0.076398592742255 -10.013555485493892 0.000022674355424 0.035924150104294 -10.045337894991333 -0.000000628801337 0.076444413107015 -10.098433154021921 -0.000007915901496 0.133057282309031 -10.011943254722512 0.00004516228141 0.01144554730277 -9.855329341409218 0.00001619790419 0.048217102531264 -10.175187044096159 0.000014404147513 -0.061113677218337 -10.072999653213801 -0.000028377154513 0.146200220414462 -9.926290261030887 0.000066396807063 -0.106134818591174 -9.934770799426564 -0.00002609532598 0.094321197417116 -9.903684831580557 0.000021584800594 -0.136038670957366 -9.898770001969716 -0.000029668384757 0.036586340648811 -9.953856391349923 0.00000224