<?xml version="1.0" encoding="UTF-8" standalone="no" ?>
<VTKFile byte_order="LittleEndian" type="UnstructuredGrid" version="0.1">

  <UnstructuredGrid>
    <Piece NumberOfCells="0" NumberOfPoints="801">
      <PointData>
        <DataArray Name="mass" NumberOfComponents="1" format="ascii" type="Float32">1 1 1 1 1 1 1 1 1 1 1 1 1 1 1 1 1 1 1 1 1 1 1 1 1 1 1 1 1 1 1 1 1 1 1 1 1 1 1 1 1 1 1 1 1 1 1 1 1 1 1 1 1 1 1 1 1 1 1 1 1 1 1 1 1 1 1 1 1 1 1 1 1 1 1 1 1 1 1 1 1 1 1 1 1 1 1 1 1 1 1 1 1 1 1 1 1 1 1 1 1 1 1 1 1 1 1 1 1 1 1 1 1 1 1 1 1 1 1 1 1 1 1 1 1 1 1 1 1 1 1 1 1 1 1 1 1 1 1 1 1 1 1 1 1 1 1 1 1 1 1 1 1 1 1 1 1 1 1 1 1 1 1 1 1 1 1 1 1 1 1 1 1 1 1 1 1 1 1 1 1 1 1 1 1 1 1 1 1 1 1 1 1 1 1 1 1 1 1 1 1 1 1 1 1 1 1 1 1 1 1 1 1 1 1 1 1 1 1 1 1 1 1 1 1 1 1 1 1 1 1 1 1 1 1 1 1 1 1 1 1 1 1 1 1 1 1 1 1 1 1 1 1 1 1 1 1 1 1 1 1 1 1 1 1 1 1 1 1 1 1 1 1 1 1 1 1 1 1 1 1 1 1 1 1 1 1 1 1 1 1 1 1 1 1 1 1 1 1 1 1 1 1 1 1 1 1 1 1 1 1 1 1 1 1 1 1 1 1 1 1 1 1 1 1 1 1 1 1 1 1 1 1 1 1 1 1 1 1 1 1 1 1 1 1 1 1 1 1 1 1 1 1 1 1 1 1 1 1 1 1 1 1 1 1 1 1 1 1 1 1 1 1 1 1 1 1 1 1 1 1 1 1 1 1 1 1 1 1 1 1 1 1 1 1 1 1 1 1 1 1 1 1 1 1 1 1 1 1 1 1 1 1 1 1 1 1 1 1 1 1 1 1 1 1 1 1 1 1 1 1 1 1 1 1 1 1 1 1 1 1 1 1 1 1 1 1 1 1 1 1 1 1 1 1 1 1 1 1 1 1 1 1 1 1 1 1 1 1 1 1 1 1 1 1 1 1 1 1 1 1 1 1 1 1 1 1 1 1 1 1 1 1 1 1 1 1 1 1 1 1 1 1 1 1 1 1 1 1 1 1 1 1 1 1 1 1 1 1 1 1 1 1 1 1 1 1 1 1 1 1 1 1 1 1 1 1 1 1 1 1 1 1 1 1 1 1 1 1 1 1 1 1 1 1 1 1 1 1 1 1 1 1 1 1 1 1 1 1 1 1 1 1 1 1 1 1 1 1 1 1 1 1 1 1 1 1 1 1 1 1 1 1 1 1 1 1 1 1 1 1 1 1 1 1 1 1 1 1 1 1 1 1 1 1 1 1 1 1 1 1 1 1 1 1 1 1 1 1 1 1 1 1 1 1 1 1 1 1 1 1 1 1 1 1 1 1 1 1 1 1 1 1 1 1 1 1 1 1 1 1 1 1 1 1 1 1 1 1 1 1 1 1 1 1 1 1 1 1 1 1 1 1 1 1 1 1 1 1 1 1 1 1 1 1 1 1 1 1 1 1 1 1 1 1 1 1 1 1 1 1 1 1 1 1 1 1 1 1 1 1 1 1 1 1 1 1 1 1 1 1 1 1 1 1 1 1 1 1 1 1 1 1 1 1 1 1 1 1 1 1 1 1 1 1 1 1 1 1 1 1 1 1 1 1 1 1 1 1 1 1 1 1 1 1 1 1 1 1 1 1 1 1 1 1 1 1 1 1 1 1 1 1 1 1 1 1 1 1 1 1</DataArray>
        <DataArray Name="velocity" NumberOfComponents="3" format="ascii" type="Float32">0.111237320251956 -10.034094197591674 0.000015395919083 0.060806675594663 -9.936117485390422 0.000003225529843 -0.071210039416785 -9.884154394154162 -0.000004321650837 -0.171901317881993 -9.958243551267683 -0.000011024786104 -0.040021403079782 -9.772263856442821 -0.000022206671052 -0.227196103240703 -9.977437570998973 -0.000035282094256 0.086637581885815 -9.861315623853518 0.000007221278726 -0.1032650865365 -9.969300642455265 -0.000012326383802 -0.035832794851577 -9.969610197192916 -0.000018582434727 -0.111391142268662 -10.032242648296428 -0.000015249572873 0.004727678892571 -9.875897638325799 -0.000024551844286 0.084490184628059 -10.152427233953917 0.000008884580833 0.222428480827476 -9.960481500228383 0.0000213159679 -0.000644744058045 -9.952881244636476 -0.000003762839104 -0.074992517822812 -9.902050959904647 -0.000013637929251 0.015422539898332 -9.844976369520579 -0.000001013148142 -0.022799424433639 -9.910817331038476 -0.000002733653 -0.132854463158803 -10.089764164216367 -0.000020235542416 0.005411865955586 -10.085892476680433 -0.000009104563564 -0.106203634309869 -9.944163765378043 -0.000000673522988 0.078693958268902 -10.030466906403046 0.000007027388635 -0.006948808764232 -10.071264249738093 0.00000953458673 -0.170514376917086 -9.970722077866027 -0.000026613036469 -0.064105016095836 -9.867051331722726 -0.000003878016937 0.01556907424997 -9.792323213872923 0.000013515876353 0.003857881538195 -10.056014451301404 -0.000000387058841 -0.010560932265631 -9.926431336221011 -0.000014072233382 0.031927448814547 -9.986304450407044 0.000005693379595 -0.089128783938668 -9.899553454844515 -0.000023450488374 0.131726679141821 -10.143881159289291 0.000018757279223 0.050567840626375 -10.082750323542088 0.00000862898375 -0.015945902933282 -9.899258932001977 -0.000015703173915 0.097410323724187 -10.049616838387292 0.000015017271616 -0.024246996544352 -9.964748306269142 -0.000014101569346 -0.107409848224965 -9.866423204310777 -0.000013400216051 0.052894093780726 -9.989569209645385 0.000001574833595 0.039709524449479 -9.909346887099325 0.000017046470801 -0.011113286212768 -9.922229273489291 -0.000007980954517 -0.039479163939426 -9.878173645166207 0.000001633275151 0.026456303399954 -9.941224846791339 0.000008176844135 -0.009232094220288 -10.149316766123246 -0.000001936806799 0.194096097925814 -10.093297853966789 0.000030058561026 0.07994391153022 -10.146363268038648 -0.000000537342254 0.101148842292105 -10.068129733410679 -0.000001404789956 -0.029010852609781 -10.150096495977039 -0.000008207544594 -0.083411433675601 -10.059355583059277 -0.000006160161298 0.141756430187857 -10.209394218756261 0.00001217078141 -0.002813671545709 -9.839324523216039 0.000013001153272 0.153822424833405 -10.097611599786969 0.000022965357625 0.133899101288206 -10.070131705588595 0.000025849887566 -0.076361243475218 -10.099065633184836 -0.000002876298069 0.049395473533667 -10.148973867676922 0.000002185737701 -0.070403164973532 -9.953254190271348 -0.000016952723377 -0.035056006557631 -9.972867973730541 0.000002920309612 -0.069387660872642 -9.949604862983916 -0.000008549637196 -0.066209759894236 -9.996613685589619 -0.000004843842519 -0.067235334706366 -10.053878109506929 -0.00001406736313 0.083404033310323 -9.93462251318963 0.000017621843909 0.007577833327418 -9.979963321173583 -0.000003894809303 0.068778687592491 -9.86974898256366 0.000018111262858 0.0039256329044 -10.088763155928193 -0.000012324677925 -0.015909452593565 -9.861472849274822 -0.000018093334903 0.043824874015931 -9.848036422385565 -0.000002318095326 0.035922799863057 -10.12144999722045 0.000004857011361 -0.111959823886119 -10.035839074732818 -0.000011891652691 -0.205450569839645 -9.924064204074295 -0.000014029888261 0.223082630832526 -10.132490147379485 0.000035818730449 0.029768608976011 -10.06304785922725 0.000015061587966 0.019272257402405 -9.839677532543025 -0.00000529219734 0.020389831035188 -9.90045305641096 0.000010236861961 0.13540181254137 -9.929541152147436 0.000028173037401 0.006976076773867 -9.993606855453866 0.000007120800986 0.209492529446198 -10.003522510056017 0.000037774606665 -0.034891909028508 -9.966076025846142 -0.000003106321919 0.074669539484335 -10.125421196113129 0.000002727283678 0.061611301557498 -10.128559018038231 0.000009100779919 0.115393947141507 -10.105143307702576 0.000018160369987 -0.072210193959318 -10.112962064875747 -0.000014795563931 -0.064449924047065 -9.980027651067486 -0.000010191473628 -0.119299331179503 -9.935125289517277 -0.000018883020753 0.001092960585872 -9.951874310269464 -0.000004197223806 -0.175064699076861 -9.96290492376033 -0.000029288313615 0.033812991837046 -10.059364885022145 -0.000006620599259 -0.075464341250167 -9.755756396246507 -0.000003155067391 0.066539211546353 -10.007224477350746 0.000013199908944 -0.043704403416009 -9.907174846629211 -0.000005078323594 -0.168956421023336 -9.893070143452388 -0.000022134967334 0.062342892871017 -10.050010295537874 0.000007532998959 0.203263585692222 -10.019419350882961 0.000036004213006 -0.017850319332982 -10.194554930912213 0.000005312011812 0.057720925328413 -10.08353370082075 0.000017799628598 0.011613874834131 -10.050837525636902 0.000003529511892 -0.07404862521404 -9.824938438278249 -0.000012986174486 0.141410618439518 -9.888408360885078 0.000022004776385 -0.052019532184891 -10.106867668992381 -0.000024044735608 0.136193700155898 -9.841784142214516 0.00002413026215 0.119358218400476 -10.088613407420262 0.000007758478924 0.064951860523592 -10.080113573486919 -0.000000423134401 0.053106760107105 -9.977076495409467 0.000004793860703 0.079516412513419 -10.125633062208205 0.000012241890405 0.00682172396935 -10.086587132833289 -0.00001204715229 -0.035895696528893 -9.943921703935242 -0.000016673478566 0.02792363899895 -10.060563963446914 0.000002806825627 -0.082589492222682 -10.029419107907311 -0.000024622887549 0.151497857227425 -9.816755184014777 0.000014249184974 0.097512031562278 -10.123449308138813 0.000010618901791 0.095676011417666 -10.072918713589512 0.000015324991341 -0.056585362258848 -10.10294537762115 -0.000007245457345 0.098366747133307 -10.050448145485978 0.000013210753755 -0.131760475240342 -10.026851278481566 -0.000021016394884 0.102562554599864 -9.923052847751451 0.000013221284559 -0.073980703850872 -9.963953296961 -0.000011175367511 -0.056136742178178 -9.867751769817323 0.000001752638396 0.039894738508822 -10.032399290041116 -0.000002333993 0.142218069187934 -9.976123357661994 0.000037760852067 -0.028178771419504 -9.944035805830342 0.000003414378083 -0.006672677397168 -9.726751625375606 0.000010587949714 -0.07580967306632 -10.050291619254942 -0.000008595249141 0.112351872436645 -10.002407144335045 0.000018440354785 -0.012330631874905 -9.881777255765822 0.000000586474628 -0.003598870324317 -10.188510409563698 -0.000001929761217 -0.095585436468739 -9.942652059323661 -0.000014456881055 0.04247099876881 -10.074398165110624 0.000000039150344 0.250428432538146 -10.011453717376638 0.000025763460355 0.076181398508795 -9.949930268468297 0.000002312008941 -0.060899053243036 -10.052398998199861 -0.000012623190983 -0.000417115043707 -10.104856475328839 -0.000008077538035 -0.094093961488108 -10.036223406090842 -0.000007815524768 -0.019932128770154 -9.951164631890805 -0.000008056595973 0.076503879304493 -9.977649685128407 0.000008782303386 0.040143688847035 -9.961850332925183 0.00000586468756 -0.005005750424451 -10.209959767316189 0.000002558589135 -0.108772574873729 -9.837000632065413 -0.000038503135145 0.06569142016029 -10.145538978758465 0.000016418195042 -0.078807964862617 -9.970353542632303 -0.000032090068968 -0.089695662817508 -10.138871325417005 -0.000005344455031 -0.026721567063231 -10.064769610572377 -0.000013865689273 -0.011744828382899 -9.930085066786738 -0.000006443547383 0.056054319042451 -10.157094308083854 0.000001539352054 0.072649518421055 -9.880470909989093 0.000023515276003 -0.004503640726931 -10.12281890413888 -0.000003358709724 0.088207980062304 -9.971313573314717 0.000027091653529 0.008853268066138 -10.145849594542309 -0.00000631775968 0.159245954587731 -10.203526144807649 0.000036430392905 0.115390433373236 -10.036910204070043 0.000012225995216 -0.114613437278296 -10.07796534428228 -0.000009898349227 0.135164667960467 -9.918744257979517 0.00001252824215 0.069989575479524 -9.932565242142537 0.000013308504174 -0.034620096474502 -10.064248291019029 -0.000004202138683 0.067924516029624 -9.959212433864243 0.000010862072356 -0.061964736540721 -10.00689438669832 -0.000021710121732 -0.14688164443242 -10.015247528947723 -0.000009978816158 -0.081675458711577 -10.021593243142558 -0.000010411806387 -0.129393074029558 -9.904472296989741 -0.00001438840678 0.025439183689991 -10.023468380606307 0.000008419549703 -0.022398852686193 -9.851847188587966 -0.000010620311558 0.183195213075676 -10.054164255479101 0.000023123036144 -0.096408682895624 -9.977430670274604 -0.000025379622386 0.249593925801781 -9.905418390871853 0.000031286277495 0.118548706799925 -10.1718113153558 0.000005792597105 -0.033515780656717 -9.933421669078134 -0.000016373716943 -0.009090109490732 -10.127737975944477 -0.00000488575742 0.237681885901818 -9.944205653229446 0.000032058428024 0.169244850554607 -9.864079220805664 0.000021813926667 -0.051062560175665 -9.937005338084804 -0.000019275790251 -0.010254942434301 -10.153319169520973 0.000010487568096 0.084840528500915 -10.053815922463425 0.000007983233244 -0.032557721963572 -9.914392210235361 -0.000009007238913 -0.052696430546275 -9.893828822577516 -0.000032115626483 0.009124273746361 -10.026147662498973 0.000002543676385 -0.072415963449467 -9.917224533246255 -0.0000311082606 0.040420146728017 -9.892517203825221 0.000015227756382 -0.070766037583528 -10.102335681878637 -0.000018360438483 -0.124247125065279 -9.953587752967501 -0.000022738009578 -0.072237801410091 -9.968051101395893 -0.00000806221633 0.091440905122707 -9.929186044543034 0.000009892389099 -0.128887688498574 -10.042411893970172 -0.000015756040217 -0.182334299089358 -10.065109871579777 -0.000018562578765 -0.134916424017682 -10.057272381841825 -0.00003150892571 0.011458488521785 -10.120311069357102 0.000008202666104 0.003416997891728 -10.030263775981526 -0.000033509335059 -0.148926014133427 -10.145772989222806 -0.000043987298045 -0.088620530218131 -9.89455889398333 -0.000067349030356 -0.128261480913111 -9.917978387568104 -0.000090333048181 0.010032633833078 -9.925523287779702 -0.00009872009704 0.058569693072056 -9.895493382972825 -0.000103773350378 0.112793355568764 -10.106340938390664 0.000014772635711 0.011610353731581 -9.880001996651602 0.000012355477002 0.127232777750111 -9.847231443760704 0.000020073046227 0.046368545048614 -10.247467800912846 0.000003390832387 -0.086543948114695 -9.862783923757844 -0.000020091785133 0.102778580864223 -9.940035884282459 0.000016017443589 -0.042268884281843 -9.98173745611718 -0.000008051727622 -0.118615415463265 -9.955074495228391 -0.000018668242373 0.175749759542305 -9.940507548921047 0.000038293272766 -0.08812186601749 -10.107498291596698 -0.000018035756593 0.039766180663475 -9.908573712514569 0.000009398681588 -0.104311776184032 -10.052140045183521 -0.000010316236336 0.035027177011181 -9.920803922614995 0.000002204055647 0.108215766576728 -10.131457863384959 0.000012999515516 0.012701918491924 -10.010091487815087 -0.000001982035654 -0.12285225116581 -9.998722870929734 -0.000028916578522 0.095546688870312 -9.949154985263309 0.000012829375719 -0.079976433409391 -9.844285114385627 -0.000013521543131 0.107908417572821 -9.985967273297401 0.000019798411608 0.01052692984647 -9.980228593994868 -0.00000429077666 0.008690943417902 -9.926942190198426 -0.000000522855762 -0.031713828123663 -9.702947209748627 0.000005114918259 0.124346156635295 -9.962542246104983 0.000013547618741 0.046290923443713 -10.017869703004804 0.000021767162396 0.099592382694871 -9.976133275966941 0.000025007355612 0.068484190411355 -9.871756738854401 0.000032866758853 0.063233351870916 -9.932495235914747 0.000031736368231 -0.148343506068373 -9.936944416268611 0.000051314675913 -0.011110037574402 -10.123449682181702 0.0000601123487 0.031577865008179 -9.967892406135602 0.000113602569848 0.082810101403572 -9.957014198072635 0.000113870505413 -0.138149129480401 -9.823776039951563 -0.000029476210598 0.113561685686757 -9.82972179510273 -0.000003400725599 0.012829841884986 -10.116197137572874 0.000009853400798 0.007747412891414 -10.045391919649283 -0.000017754822468 0.18978320248488 -9.983125712709159 0.000016672224222 0.127412624769357 -9.994448515437259 0.000013193323139 -0.100966673146725 -10.002695997162473 -0.000028658284853 0.001450724705249 -10.063679715732164 -0.000015602540245 0.118894301701611 -10.043519766629005 0.000006955049713 0.209758736004957 -10.072898035488413 0.000033885603873 -0.108308174659029 -10.026199230389292 -0.000018371753449 -0.147502939036343 -10.054543942803219 -0.000026845223487 0.030478014778773 -9.871103290832188 0.000005492272054 0.214420764541383 -10.137515981864093 0.000020843635766 -0.000852571869654 -9.981351204735462 -0.000003094693403 0.170391892467685 -9.882788863137991 0.000022109037773 -0.068579419875699 -10.06903806166555 -0.000008553967546 0.020440267162246 -9.93337535378229 0.000006696302734 0.168916962855915 -10.02635572471484 0.000027903288733 -0.020121033891494 -9.885367690473339 0.000007690380894 0.03343950501556 -9.977765996940217 0.000005784846244 -0.202628624857619 -9.955260642456304 -0.000033070510408 -0.150991080337921 -10.01199552996135 -0.000009904209592 0.063976056182455 -10.00468780857528 -0.00000763364029 -0.132935261282572 -10.017546050357167 -0.000030922929815 0.073326662034917 -9.931084987164144 -0.000146653505874 0.041167221412435 -10.02384561155564 -0.000156542668446 -0.170388657729656 -10.101856149308075 -0.002295365143741 0.198309071261765 -9.816859636722855 -0.002252533330029 0.036690423104582 -10.125690305631066 -0.010322986527934 -0.045288784571893 -10.214378730168413 -0.010333464173656 0.023880103300588 -9.935721686978646 0.000001333043303 -0.130511795859212 -9.951796700084875 -0.000013617116854 -0.050582237687817 -10.119689072802514 -0.000015660987794 0.17395964820651 -9.890247153310836 0.000023483016859 0.167561689154682 -9.909379195422883 0.000035900346315 -0.067439235137614 -9.990292152182647 -0.000019266181266 0.038234858504254 -10.15398213558715 0.000013489055004 0.051954051186464 -9.861576081847257 0.000009673299703 -0.126850206565328 -10.020325928992058 -0.000026028053276 -0.006017540961439 -9.85542672638339 0.000013196781505 0.009644229366277 -9.967887106677633 -0.000001605992713 -0.080029871755766 -10.047619896313957 -0.000011847587128 0.08664185926875 -10.030514219020699 0.000007293276409 0.042305767795493 -9.97389198992532 0.000000739177823 -0.018772312169096 -10.175453834603832 -0.000008115236848 0.096485858131081 -9.967667386432845 0.000016630036902 0.019630952558626 -9.962403882974803 -0.000001413090773 -0.084744296308315 -10.058338638864164 -0.000003815687584 -0.05041277113371 -10.044808556822629 -0.000019331018796 0.043801230705456 -10.111784664292054 0.000006686671122 -0.045314039374282 -10.033134197307467 -0.000003474648108 -0.054080958225838 -9.790380257590273 0.000005146306509 0.017652682761337 -10.066485567519289 -0.000005438904465 -0.248718474325996 -10.007998589014932 -0.000017033932058 -0.05365356992295 -10.174667831159862 0.000006810609306 -0.018020721531087 -9.971354928906687 0.000163615920894 0.028475059483004 -10.131560830190175 0.00016215205927 -0.046733128121265 -10.011625893990553 0.002277082541262 0.074395380671124 -9.937602767150221 0.002294976629266 -0.043540275170658 -10.004108922035746 0.010322031053351 -0.098914735508299 -9.934081471223184 0.010316588355892 0.121074879057296 -10.104105353720344 0.000025594439784 0.080232632968552 -9.969929227623377 0.000008571625794 -0.014440471490426 -10.040846187404036 0.000001941022977 0.061015315334614 -9.930851207269974 0.000007554195537 0.116014679024083 -9.89438208952938 0.000018399461817 0.061741030902774 -10.028438812705776 0.000007679658757 0.103091143823302 -10.082126386303901 0.000018070107428 0.051050261946771 -10.05128078266941 0.000001847566091 0.0121700062068 -10.059688425381795 0.000001939475267 -0.039373019365745 -10.056151910959379 -0.000024949879177 0.012715731571756 -10.063164440273216 -0.00000204285172 -0.02134245218925 -10.167205346533217 -0.000005163855575 0.031270149318131 -10.11827153361684 -0.000003927678128 0.254040025267816 -10.071211188601659 0.000028098344982 0.081328330680325 -9.748761004638176 0.000006996120543 0.074103595952593 -10.088638791147774 -0.000001794819772 -0.136188565326893 -9.922725992978764 -0.00001876539974 0.002751869804581 -10.034988084388026 -0.000013257243396 0.056091290515671 -10.019891272782301 -0.000005264084961 -0.144792453745988 -9.988780304878839 -0.000022267801803 -0.083538973722937 -10.16240099207756 -0.00002749448491 0.136750742995157 -9.890275534083154 0.000032345466888 -0.041081257765895 -10.16698099469423 -0.000007895888595 0.123778844675632 -10.10128505565018 0.00000348038896 -0.075497107204259 -9.931775572912134 -0.00002391855399 -0.112689949573838 -9.91686565510364 -0.000189569222046 0.106997017555927 -9.967174032178603 -0.00015086564218 -0.125291365884901 -9.888906290454283 -0.002306421611501 0.006927686848739 -9.876032202924248 -0.002289455655314 -0.085822430404827 -10.08340804873151 -0.000009147437598 -0.079411741619634 -9.997246799740712 -0.000010827487125 0.088063683188282 -9.975288109473649 0.000011662660491 0.012704685113293 -9.868779372208053 -0.000016426810903 -0.138774984147077 -10.123873457017272 -0.000035358596418 -0.019874639487978 -10.000273363163565 -0.000011841369989 -0.102878993674583 -9.897289356951825 -0.000021858896155 0.13347353423713 -9.996939134366409 0.000014361837466 -0.006278935110716 -10.081114144077389 0.000014085281883 -0.138350540079785 -10.007152623567514 -0.000011667382191 -0.02694788184906 -10.016646662258497 -0.000004726160641 0.152147722671572 -9.919942139899034 0.000033393331056 0.012376461739348 -10.010958650063877 -0.000004287573248 -0.015133422477729 -9.838591015991465 -0.000010561133274 0.052664674857775 -9.842177449375615 0.000015494219948 0.015691560085844 -9.972771341601398 0.000000258678908 -0.01530006583516 -9.989008132147642 -0.000003587541615 -0.079810845160299 -10.092110742054045 -0.000009030916004 0.094846850880412 -10.085084187444707 0.000014124773086 0.021773363435914 -10.034105037362282 0.000016887714807 -0.106053344870176 -9.872008431647895 -0.000007027093239 -0.150253698886832 -10.226135815409043 -0.000002778784702 0.114818129979218 -10.130506913505469 0.000024501761376 0.027037425747825 -10.09960501098608 0.000033949076138 -0.070960688413257 -10.020901607245442 0.000012871906095 -0.087893625805472 -9.963440648578905 0.000162774883338 0.039288782280618 -10.134688692398871 0.000176620731919 0.206613025955136 -9.969496229536063 0.002320826093372 -0.012930147973925 -9.959788812551443 0.002287158345204 0.031904845840164 -10.04502858469823 -0.000003065142065 -0.056227808924233 -9.99847806629827 -0.000015486127446 -0.046278344237881 -10.132258323975645 -0.00001113015991 -0.016941512757243 -10.121137619538569 -0.000008182534616 -0.179564673038682 -10.061921605451404 -0.000037422577279 -0.106376710687161 -10.01123449819768 -0.000011730772787 0.104190438962373 -9.932798673909492 0.000013773410356 0.011002455008041 -10.130598250123288 -0.000008572567967 -0.167595895331968 -9.856865786179853 -0.000031035712039 0.096439543221149 -9.861085251325141 0.000017638389815 0.098245851536684 -10.231814006679194 0.00000406969847 0.124599077638989 -9.96998431694621 0.0000266264627 0.124499434059751 -10.054446223349759 0.000018624419615 -0.023609312395816 -10.080082227810005 -0.000018107425405 0.121996642764233 -10.044518226569222 0.000015811608827 0.002576345679575 -9.995473444729127 -0.000010941899626 0.028171541302413 -9.973038969143891 0.000019756160126 0.139445627046013 -9.91191399806525 0.000021697760441 0.03017393535091 -9.767595530245018 0.000001390739878 0.008284134017166 -9.729018528191499 0.0000090746455 0.144248765549949 -9.94350709179326 0.000025368630306 -0.065184527823773 -9.940234677328748 -0.000025755765923 0.070346768772205 -9.952062437864457 0.000011025317933 -0.102596189488169 -9.946527560789002 -0.000041146834427 -0.031595297761453 -10.066151024666748 -0.000017215777028 -0.01551166664169 -10.176791730748459 -0.000076339152382 -0.090624997039593 -10.06159512329387 -0.000099344550139 0.015217121764558 -9.963567618848698 -0.00015780482775 -0.153274888331053 -9.989519454289967 -0.000176328113066 -0.076008055243308 -10.04319317768047 0.000008423118657 0.083755302076326 -9.802191408989458 0.000016799259638 0.047498244260983 -10.033867396231349 0.000006103080945 0.146724383979219 -9.890649903555307 0.000016092316689 0.043853125945651 -9.958814688690961 0.000017047464567 0.134402695547627 -9.825709929833529 0.000021321373079 0.07239304519119 -9.924958693287158 0.000017373600297 -0.020553522439602 -10.040235687621076 -0.000006530894663 -0.109341837392557 -10.047589319140259 -0.000020853523111 -0.097562606140933 -10.206947992023148 -0.000015285731761 0.027800404344835 -10.075220373287408 0.000000189486595 -0.038381524020077 -9.919205348198089 -0.000020677831009 0.023344401587509 -10.085995933854374 0.000000390037487 0.075289620463169 -9.938851068329786 -0.000001301887375 -0.126629566343498 -10.166299130206141 -0.000021362696048 -0.069882052995956 -10.149919950810578 -0.000004739205202 0.015626255915662 -10.067719012923769 -0.000004979715746 0.08935808993684 -10.015615219668319 0.000026776156751 0.076213605298103 -9.96545029107012 0.000005090752089 -0.247832303649192 -10.177957267621359 -0.000024319420741 -0.073297109703079 -10.097015661976013 -0.000006450682858 -0.152421106247299 -9.954490649005219 0.000004203934987 -0.03826413700542 -10.072075132762054 -0.000002300395928 0.16591738541295 -10.013458291032354 0.000050542007705 -0.006365142497572 -10.138388204590679 0.000030919049454 -0.058154560953032 -10.090567601203404 0.000064990546126 -0.060794830934399 -9.908980902191111 0.000077742173145 0.107270905086745 -9.873713159292993 0.000166296566452 0.043645150597329 -9.79128986572719 0.000175760042725 -0.013325541919282 -9.872525984390334 -0.000008143803007 0.059563100680097 -9.967765798318863 0.000017838838367 -0.039343621127104 -10.126838276492714 -0.000004303431768 0.025887557695137 -10.026217462031456 0.000007571046473 0.117808364987393 -10.118920094377081 0.000023732815785 -0.211006947584557 -9.9553637277021 -0.000025953687985 -0.06454069719411 -9.789141703015348 -0.00001136133872 0.177878783054292 -10.032667742912487 0.000020898671809 0.00151667385628 -10.017815737283957 0.000006299308272 -0.06121248114386 -10.081240332670268 -0.000008397358692 0.183284012311645 -10.05295078253129 0.000022151994533 -0.121670104760142 -9.930225109327866 -0.000022355882198 -0.118281292199912 -10.06339310772214 -0.00002251643798 0.052740806458169 -10.269655554632427 0.000007506308553 -0.014598859003814 -10.041947880369355 -0.000018566794632 0.017935078199936 -10.181608030965027 0.000002227398033 -0.10957611557106 -10.047927793894177 -0.000018241085187 -0.019564624087047 -9.887456907156391 -0.000003232019972 0.066994894444907 -9.895870068496395 -0.000006419915431 -0.03200912212808 -10.100631370122667 -0.00000505047536 -0.01689563445998 -10.090553850573709 -0.00002182567952 0.008815018322983 -9.959432067179549 -0.000013053201935 -0.045585847439339 -9.959428581554457 -0.000022182597513 -0.161058009990485 -10.089994180089986 -0.000183016117665 -0.240343478600381 -9.824811628544289 -0.000209881861499 -0.05350390578533 -10.013551389592303 -0.002300640795362 -0.063760312292582 -10.049441448188224 -0.002307297455154 0.118635146690479 -9.95004511858647 -0.010327526069163 -0.088822281660388 -10.000358092163518 -0.010336017280549 -0.232649736931888 -10.10208240303638 -0.000036101870762 0.034593071743293 -9.886463487087942 -0.000005248683439 0.02930113530206 -10.137905742742481 -0.000005764594975 0.104274247747502 -9.9405656736288 0.000002594292324 -0.050516877003626 -10.23431749928125 -0.000014484507069 -0.019519424926988 -9.940900496334535 -0.000010910970087 0.000334057946822 -10.019909801527833 -0.000013039355874 -0.087592724557543 -10.059628791989658 -0.000014393608533 0.074099996716383 -10.137972415149301 0.000011034560156 0.131184926859555 -10.087871357195064 0.00002154328759 0.06746358507654 -10.039043581673985 0.000002002169988 0.057780804616787 -9.808990465579177 0.000008771313686 0.044409290084206 -9.987963442016449 -0.000000195486279 0.195529280800053 -10.094614124611843 0.000032872395311 -0.020486746468704 -9.936371824558169 -0.000007558932712 -0.046635511439556 -10.027372548946129 0.000006791849214 0.091602841673366 -10.063122881055724 0.000009596733619 -0.08086430190443 -9.941016686047597 -0.000003126957043 0.033275862010272 -9.934762728800289 0.000000736851819 -0.108818968694424 -9.953164124477725 0.000013829419803 0.038303715816776 -9.919432288415031 0.000007533020558 -0.172781455980256 -9.963403467789288 0.000003828769159 -0.031878356570572 -9.969279100747867 0.000009481381029 -0.025655350524519 -10.036744665244932 0.000153060342021 -0.014482950866558 -9.887929992905963 0.000180885711187 0.224629873430499 -10.192162683982117 0.002333784603726 -0.009697017871077 -9.947273517833041 0.002305968856483 -0.035863156756045 -10.051336573308797 0.010329067934408 -0.11928059368472 -10.064657391239411 0.010326376768333 0.070454999643082 -9.978662106009905 0.000010994351578 -0.154241652207081 -9.866048078310335 -0.000024590882981 0.033699888361217 -10.233711080434245 0.000007676543952 0.001842044679001 -9.805737759860385 0.000003341235167 0.09315690906447 -9.849782453699824 0.000009015998735 0.004914806862565 -9.903519809212014 0.000004130610084 -0.113541623510492 -9.923126763088568 -0.000029331393489 0.175631208818935 -10.027860550230407 0.000011261668962 0.050413456278288 -10.056422261888097 -0.000000950746645 -0.123895177136915 -10.11730341633149 -0.0000192370549 0.048160654044261 -10.1108700203275 -0.000008686247184 -0.106474343064071 -10.024416594571059 -0.000012297383248 -0.128563678499367 -10.051229261269103 -0.000016133530486 0.033301096002611 -10.044557770719427 0.000011373207707 0.166657859618623 -9.979352958623041 0.000025571464471 0.015379479685697 -10.163411891531229 0.000007692674358 -0.151278346287826 -9.977133320436751 -0.000018074475897 -0.14659404079213 -10.046039124000361 -0.000021392832806 0.170268279695444 -10.01657579995665 0.00000599654812 -0.08922152876967 -10.008224331625103 -0.000016395442298 0.080164756968743 -10.133508401158695 -0.000011032327814 -0.089964697173535 -10.069806309321505 -0.000065224316901 -0.221041077083857 -10.178185311754238 -0.000088971158572 -0.168259507559711 -9.928716565215986 -0.000239748904321 0.10636545381336 -9.994201092132776 -0.000206051467332 0.014134629787135 -9.999062329041951 -0.002384824114918 0.123652743289391 -10.041894542761348 -0.002359253376015 0.017707457997933 -10.201407327522826 0.000008532694376 0.076171438413329 -9.867112253637657 0.000009021817866 0.111357753715798 -9.990104965558178 0.00000554332308 0.018460148033117 -10.087193794437317 0.00001209252001 0.033482918316708 -10.013005573123776 0.000004757237449 0.009164597228342 -10.05468590906597 0.00000166157501 0.148395950842236 -9.990978200107206 0.000018023108397 0.076390853218068 -10.013320731456153 0.000011196160245 0.035925612413847 -10.045503966381771 -0.000000222577204 0.076448587663407 -10.099022379088314 -0.000003751311816 0.133040638916113 -10.0115834972848 0.000022259228736 0.011438672973325 -9.854488806208797 0.000008139349041 0.048211291489286 -10.175944891156995 0.000007259914443 -0.061103411074949 -10.073653558540112 -0.000013557203285 0.146176486294804 -9.925871659847326 0.000032889311762 -0.106125255541477 -9.93458550656802 -0.000012094774802 0.094314017337586 -9.903555822585773 0.000011270746823 -0.136028270768741 -9.898325220964965 -0.000012974958863 0.036585553566063 -9.953813225541