<?xml version="1.0" encoding="UTF-8" standalone="no" ?>
<VTKFile byte_order="LittleEndian" type="UnstructuredGrid" version="0.1">

  <UnstructuredGrid>
    <Piece NumberOfCells="0" NumberOfPoints="801">
      <PointData>
        <DataArray Name="mass" NumberOfComponents="1" format="ascii" type="Float32">1 1 1 1 1 1 1 1 1 1 1 1 1 1 1 1 1 1 1 1 1 1 1 1 1 1 1 1 1 1 1 1 1 1 1 1 1 1 1 1 1 1 1 1 1 1 1 1 1 1 1 1 1 1 1 1 1 1 1 1 1 1 1 1 1 1 1 1 1 1 1 1 1 1 1 1 1 1 1 1 1 1 1 1 1 1 1 1 1 1 1 1 1 1 1 1 1 1 1 1 1 1 1 1 1 1 1 1 1 1 1 1 1 1 1 1 1 1 1 1 1 1 1 1 1 1 1 1 1 1 1 1 1 1 1 1 1 1 1 1 1 1 1 1 1 1 1 1 1 1 1 1 1 1 1 1 1 1 1 1 1 1 1 1 1 1 1 1 1 1 1 1 1 1 1 1 1 1 1 1 1 1 1 1 1 1 1 1 1 1 1 1 1 1 1 1 1 1 1 1 1 1 1 1 1 1 1 1 1 1 1 1 1 1 1 1 1 1 1 1 1 1 1 1 1 1 1 1 1 1 1 1 1 1 1 1 1 1 1 1 1 1 1 1 1 1 1 1 1 1 1 1 1 1 1 1 1 1 1 1 1 1 1 1 1 1 1 1 1 1 1 1 1 1 1 1 1 1 1 1 1 1 1 1 1 1 1 1 1 1 1 1 1 1 1 1 1 1 1 1 1 1 1 1 1 1 1 1 1 1 1 1 1 1 1 1 1 1 1 1 1 1 1 1 1 1 1 1 1 1 1 1 1 1 1 1 1 1 1 1 1 1 1 1 1 1 1 1 1 1 1 1 1 1 1 1 1 1 1 1 1 1 1 1 1 1 1 1 1 1 1 1 1 1 1 1 1 1 1 1 1 1 1 1 1 1 1 1 1 1 1 1 1 1 1 1 1 1 1 1 1 1 1 1 1 1 1 1 1 1 1 1 1 1 1 1 1 1 1 1 1 1 1 1 1 1 1 1 1 1 1 1 1 1 1 1 1 1 1 1 1 1 1 1 1 1 1 1 1 1 1 1 1 1 1 1 1 1 1 1 1 1 1 1 1 1 1 1 1 1 1 1 1 1 1 1 1 1 1 1 1 1 1 1 1 1 1 1 1 1 1 1 1 1 1 1 1 1 1 1 1 1 1 1 1 1 1 1 1 1 1 1 1 1 1 1 1 1 1 1 1 1 1 1 1 1 1 1 1 1 1 1 1 1 1 1 1 1 1 1 1 1 1 1 1 1 1 1 1 1 1 1 1 1 1 1 1 1 1 1 1 1 1 1 1 1 1 1 1 1 1 1 1 1 1 1 1 1 1 1 1 1 1 1 1 1 1 1 1 1 1 1 1 1 1 1 1 1 1 1 1 1 1 1 1 1 1 1 1 1 1 1 1 1 1 1 1 1 1 1 1 1 1 1 1 1 1 1 1 1 1 1 1 1 1 1 1 1 1 1 1 1 1 1 1 1 1 1 1 1 1 1 1 1 1 1 1 1 1 1 1 1 1 1 1 1 1 1 1 1 1 1 1 1 1 1 1 1 1 1 1 1 1 1 1 1 1 1 1 1 1 1 1 1 1 1 1 1 1 1 1 1 1 1 1 1 1 1 1 1 1 1 1 1 1 1 1 1 1 1 1 1 1 1 1 1 1 1 1 1 1 1 1 1 1 1 1 1 1 1 1 1 1 1 1 1 1 1 1 1 1 1 1 1 1 1 1 1 1 1 1 1 1 1 1 1 1 1 1 1 1 1 1 1 1 1 1 1 1 1 1 1 1 1 1 1 1 1 1 1 1 1 1 1 1 1 1 1 1 1 1</DataArray>
        <DataArray Name="velocity" NumberOfComponents="3" format="ascii" type="Float32">0.111262459808162 -10.033022729752474 0.000053117549849 0.060809328138524 -9.93664806922537 0.000011126954288 -0.071214799817251 -9.884324780209678 -0.000014904644768 -0.171918000978882 -9.958220005045144 -0.000038013708953 -0.040060540328458 -9.773131893020576 -0.00007660908378 -0.227255060934083 -9.977320478089881 -0.000121690256191 0.086648304624461 -9.861387548894692 0.000024904282485 -0.103283308869703 -9.969592893025537 -0.000042535221952 -0.035863235114435 -9.968744091976969 -0.00006410922743 -0.111415877666448 -10.032503063574856 -0.000052615828698 0.004686071843926 -9.876665035987907 -0.000084700779083 0.084503610622083 -10.151066868845202 0.000030653731091 0.22246407963156 -9.959878771578339 0.000073517105951 -0.000651895017866 -9.95327257879757 -0.000012974153657 -0.075014621415639 -9.902341571475858 -0.000047076200229 0.015421991861538 -9.846509659363111 -0.000003506005992 -0.022803527833915 -9.911503481953035 -0.000009424213017 -0.132888757287037 -10.088078967264954 -0.000069737780543 0.005393540265672 -10.084913701520254 -0.000031383400649 -0.106203592149589 -9.945340623289837 -0.000002316131236 0.078706451361555 -10.030465661159914 0.000024225781543 -0.006933679722798 -10.069844567452865 0.000032903251222 -0.170559606632661 -9.970190783359941 -0.000091821186765 -0.064112761993999 -9.868766118308743 -0.000013379880362 0.015594454502574 -9.793619909304427 0.000046609276058 0.003855790211971 -10.055089632531523 -0.000001324046576 -0.01058414457752 -9.925554541850659 -0.000048580255586 0.031936748798428 -9.989240821031464 0.000019643708486 -0.089168795764622 -9.898503271108638 -0.000080889368979 0.131760243711063 -10.149050358187013 0.000064694912355 0.05058112725676 -10.076107690669067 0.000029775161217 -0.015972421035712 -9.900182511380901 -0.000054162517301 0.097436923817851 -10.048200677250062 0.00005180177899 -0.024273287557331 -9.964564821172411 -0.000048602715481 -0.107432453132412 -9.867398341866673 -0.000046173070996 0.052894742317922 -9.989179192012964 0.000005455627672 0.039738740838214 -9.909014901672734 0.000058774104312 -0.011124901792159 -9.922603196737565 -0.000027547661366 -0.039476336325407 -9.879480016589154 0.000005629770537 0.026472277308263 -9.941788726411959 0.000028220128358 -0.009237540626886 -10.148130773378602 -0.000006626246229 0.194144635024899 -10.0925441364297 0.000103730434593 0.079942495562258 -10.146391145891219 -0.000001851945019 0.101143856651136 -10.068209470105442 -0.000004832372837 -0.029020618161064 -10.150338491108595 -0.000028287526974 -0.083419576436054 -10.058436216205145 -0.000021202544211 0.141774344277546 -10.20866334849179 0.0000420654648 -0.002787532485699 -9.841246288425658 0.00004490821084 0.153858269181938 -10.098100790447084 0.000079267080637 0.133942024988201 -10.069489060253652 0.000089282083174 -0.076364131716259 -10.098433529019754 -0.000009740825019 0.049397503340795 -10.147876971618219 0.000007735232183 -0.070432307557874 -9.953876174812212 -0.00005810674299 -0.035051307717821 -9.973718889958711 0.000010406369284 -0.06940054699645 -9.950087067750935 -0.000028907143399 -0.06621710441363 -9.996207181713844 -0.000016124111048 -0.067256499121182 -10.053304821374333 -0.000047596071754 0.083435136893973 -9.934416815208268 0.000061706228234 0.007571871952415 -9.982697222683756 -0.000012178522424 0.068811161308042 -9.868035223476731 0.000063753518954 0.00390337343864 -10.094149703986304 -0.000041095120729 -0.015940390104448 -9.855666999739944 -0.000060956949034 0.043819930116001 -9.850022808682047 -0.000008014808476 0.035928361508603 -10.119420590916187 0.000016738987955 -0.111975602284204 -10.03546141437679 -0.000041042373859 -0.205471130399431 -9.925497045889278 -0.000048416274317 0.223142458337685 -10.130800491910396 0.000123541915522 0.029793511661743 -10.061750101479747 0.00005199208124 0.019259475437489 -9.841327239116609 -0.000018251031703 0.020405775163043 -9.901553713231957 0.000035328936869 0.135450046929174 -9.929462021021823 0.000097151416565 0.006989939241554 -9.993090874304746 0.000024541518028 0.20955723158698 -10.003720222644004 0.000130230821913 -0.034896466872822 -9.966910595281469 -0.000010736301758 0.074674487885062 -10.124827074986371 0.000009387799588 0.061626182785124 -10.12778488184548 0.000031357896239 0.115426106862904 -10.104701656418397 0.000062618002425 -0.072235458745796 -10.112261864605511 -0.000051122452258 -0.064468099110094 -9.980435886545955 -0.000035211239332 -0.119331692316537 -9.936003129450114 -0.000065287668309 0.001085053375091 -9.952456833021589 -0.000014576581032 -0.175114591464003 -9.961919352608868 -0.000101266218777 0.033799201192337 -10.058689615760397 -0.000023022154363 -0.0754681974112 -9.757304618461601 -0.000011229911508 0.066564318296628 -10.006940385296913 0.000045215007064 -0.043713114296538 -9.907156382602096 -0.000018111910913 -0.168991624053706 -9.894046403585554 -0.000076929237777 0.062354977873257 -10.050222632269307 0.000025064175668 0.203320697611676 -10.018969404906377 0.000123259920865 -0.017840642823299 -10.195276281571617 0.000017030484526 0.0577502902112 -10.080188214498726 0.000060125336953 0.011619161899312 -10.057297491020512 0.000010748868396 -0.074073069417702 -9.820218311087018 -0.000046207718989 0.14144876353996 -9.889141498826156 0.00007591494176 -0.052060507513478 -10.105868244990731 -0.00008289822418 0.136232648277816 -9.842983130382674 0.000083278184039 0.119370998581106 -10.088209056056234 0.000026755915656 0.06494923739184 -10.079308803787026 -0.000001434151142 0.053115513148868 -9.978017964240289 0.00001655717618 0.079539717779848 -10.124658714500368 0.000042242063427 0.006799527147689 -10.08600204038691 -0.000041490362535 -0.035923012881966 -9.945060346129599 -0.000057460209675 0.027928887658717 -10.059639628029357 0.000009721965544 -0.082629843719975 -10.029469783811743 -0.000084925403066 0.151519821479835 -9.818899908458596 0.000049196788958 0.097529252317744 -10.122952909529653 0.000036683299312 0.095700980845105 -10.071704364134826 0.000052958360818 -0.056598385293278 -10.102710997381774 -0.000024896350764 0.098390357939069 -10.050006874985694 0.000045726024136 -0.131794592500226 -10.026900022335548 -0.000072342940752 0.102585623178799 -9.923368046291383 0.000045886849055 -0.073997097227015 -9.964516116748975 -0.000038314114306 -0.056131947587659 -9.868464349022577 0.000006589775322 0.039887787328244 -10.031720635071379 -0.00000752126815 0.142283839882183 -9.974608631492989 0.000131356231563 -0.02817420293386 -9.944857633731182 0.00001289507334 -0.006653950093423 -9.729039625072462 0.000038906797316 -0.075823923933162 -10.049077088629106 -0.000027265591692 0.112384859729232 -10.002208275603191 0.000068484885219 -0.012325749224812 -9.882584004765729 0.000006900770676 -0.003598903221253 -10.189166265628486 0.000001631345977 -0.095603478259129 -9.940723170753824 -0.000041598554644 0.042476974047919 -10.08073940213578 0.000010227731459 0.250477190322288 -10.005297211937435 0.000098936194901 0.07618415387772 -9.951035037549875 0.000007944889505 -0.060920764760431 -10.051882464490957 -0.000043561281479 -0.000433489372106 -10.103523349740454 -0.000027832976832 -0.094105951508666 -10.036044671278143 -0.000026966698629 -0.019944074426276 -9.951875254071833 -0.000027800294234 0.076519132348792 -9.978911970999956 0.00003024752235 0.040156339787632 -9.961265277382648 0.000020183325988 -0.005003279680632 -10.208675665979158 0.000008791597823 -0.108839886279481 -9.838098726019114 -0.000132828502432 0.065718600076033 -10.145795919254164 0.000056580496222 -0.078863373949073 -9.970180732876351 -0.000110681294065 -0.089702221213427 -10.138008637781633 -0.000018493327006 -0.026744869667631 -10.064766803449682 -0.000047869834114 -0.011755435218316 -9.930763367666641 -0.000022321608662 0.056057309104914 -10.156564516900398 0.000005219028055 0.072690183630838 -9.881068679477464 0.000080954531547 -0.00450791572139 -10.123066605943279 -0.000011739024631 0.088251903497546 -9.971916714244347 0.000093202803643 0.008841804321221 -10.145276494656935 -0.000022062326905 0.159306168963708 -10.202004842511492 0.000125176216014 0.115410122887511 -10.036862830741127 0.000041654373224 -0.114628860340592 -10.077881052327999 -0.000035229471542 0.135184639240135 -9.919863727099303 0.000042110832282 0.070010827427762 -9.933339237110649 0.000043536332069 -0.034626741687422 -10.063333437090055 -0.000016877430281 0.06794119512736 -9.959530667533592 0.000032570764741 -0.062004569834972 -10.007005223912779 -0.000079734789752 -0.146902184444398 -10.016491294004657 -0.000042696171331 -0.081695625766279 -10.019605867118194 -0.00004419409835 -0.129424971639335 -9.910796375652836 -0.000059707814945 0.025447842624612 -10.017597905980091 0.000018950631695 -0.022419903254598 -9.853248650546483 -0.000036584451401 0.183234087086638 -10.052661491094609 0.000079770746516 -0.096449496115466 -9.977710163092345 -0.000087538375953 0.249647868981349 -9.906178341938528 0.000107949532508 0.118559311386677 -10.170808866057195 0.000019991018604 -0.033543162711533 -9.933343320187365 -0.000056426548669 -0.00910016490355 -10.126786631171342 -0.000016794870363 0.237736486777291 -9.944134198457277 0.000110635492328 0.169279615856124 -9.866436605545912 0.000075270169512 -0.05109427260333 -9.937541051608234 -0.00006639728713 -0.010232445918496 -10.151065552959473 0.000036232928066 0.08485519220303 -10.052624508350672 0.00002766337049 -0.032572304392448 -9.915904277339012 -0.000030979759402 -0.052753726535514 -9.894626062046829 -0.0001106014537 0.009126154128199 -10.025090360919195 0.000008931389753 -0.072468900701623 -9.917917010004524 -0.000107011144578 0.040445399029025 -9.893353019383976 0.00005278243695 -0.070795819444812 -10.100965511228823 -0.000062850818561 -0.124285082953624 -9.953216024812074 -0.000077884765984 -0.072250380929443 -9.968936917208648 -0.000026657920449 0.09145655087088 -9.929871735546826 0.000035269018945 -0.128910226119354 -10.04217368191579 -0.000051330335843 -0.182362437110135 -10.064751219197317 -0.000060963848645 -0.134964665787438 -10.057140121050582 -0.000098901590341 0.011477165499119 -10.12014616599132 0.000038053248632 0.003374021320628 -10.030000928274438 -0.000081643322735 -0.148981834133398 -10.144465061174442 -0.000117787886198 -0.088680098339752 -9.897253343941053 -0.000132731751783 -0.128362032904088 -9.916890123404187 -0.000211948115077 0.009948444523226 -9.93125138357207 -0.000184061748286 0.058475099144151 -9.889755750535086 -0.000201492821236 0.112817151253299 -10.104248658262154 0.000050909515333 0.011634004453975 -9.882563928656051 0.000042578499776 0.127266456008048 -9.848439775106741 0.000069212949806 0.04637342444898 -10.244568295049799 0.000011695495423 -0.086575777660595 -9.86321089900378 -0.000069375545645 0.102806142036986 -9.941401526230687 0.00005519961856 -0.042281029396495 -9.981061258427783 -0.000027813873764 -0.118644729571387 -9.955663495405293 -0.000064471663775 0.175813329409504 -9.94054546500584 0.000132048979218 -0.08815344474853 -10.106602050929776 -0.000062255709335 0.039780119181338 -9.908760536830664 0.000032372622747 -0.104331155977083 -10.052727222000051 -0.000035669166812 0.03503094564803 -9.921129220191773 0.000007501525926 0.108234769789378 -10.130551364797597 0.000044695662776 0.01269782913661 -10.009457970321842 -0.000006978975239 -0.122901076293565 -9.998631103260154 -0.000100010488171 0.095567157238534 -9.949571244394258 0.000043997395222 -0.079997400020375 -9.845533541487418 -0.000047142138505 0.107943015262951 -9.985553952276069 0.000067770851684 0.010520213933263 -9.978481575473586 -0.000015963968036 0.00869164864045 -9.927340890024686 -0.00000294855939 -0.031707252451915 -9.705500021688977 0.000014593219926 0.1243673426776 -9.962432269708897 0.000043642256416 0.046321028619661 -10.015925513612011 0.00006529195356 0.099629460278328 -9.975852869437105 0.000076506072952 0.068521228061923 -9.872857683640385 0.000079412383004 0.063267690848386 -9.933295049728537 0.000075557693508 -0.148309101791849 -9.938769467060414 0.000077418923054 -0.011062182635246 -10.119937501156306 0.000107772648149 0.031688001083267 -9.973613596274827 0.00023539723278 0.082921395333273 -9.951879004719226 0.000236290094571 -0.138197629593295 -9.825025864656954 -0.000101618720429 0.113554241064744 -9.830620874810384 -0.000011674826174 0.012849917874106 -10.114395160363813 0.000034000504589 0.007717189964757 -10.044240186419728 -0.000061240959552 0.189810505383778 -9.983786547328316 0.000057544618813 0.127436728960391 -9.994967570569518 0.000045553091913 -0.101017303017524 -10.002795039818944 -0.000098765693649 0.001422899108366 -10.063419683193681 -0.000053776581007 0.118905446246891 -10.043267587763832 0.000024056574257 0.209816846851744 -10.072777816115316 0.000116992173271 -0.108338900237755 -10.025607993754198 -0.000063257838271 -0.147546885515212 -10.054999335232019 -0.000092469022874 0.030489213327205 -9.872238350743741 0.000019071925833 0.2144554014413 -10.136085956145191 0.0000720784558 -0.000857005957109 -9.981250813992537 -0.000010456935234 0.170426887183075 -9.884078452442063 0.000076662882021 -0.068595069231076 -10.06847790423512 -0.000029064638336 0.02045057280802 -9.932952542801639 0.000023938678909 0.168962028730581 -10.02632801315222 0.000097037995156 -0.020105759527507 -9.885880828417633 0.000028553141174 0.033448603921407 -9.9781141935814 0.000021969621624 -0.202680563007818 -9.955196275925305 -0.000107585520232 -0.150999129612844 -10.011856516859039 -0.000027740496445 0.063978705471775 -10.004239769789519 0.000004547360909 -0.132968138888291 -10.017470939277318 -0.000075772870238 0.073216544144746 -9.932577390996711 -0.000242104503197 0.041038068548968 -10.022468393150028 -0.000276237472924 -0.172361678739239 -10.10509440202787 -0.004276841940359 0.196404552705279 -9.815540496323505 -0.004129168046513 0.027844249839823 -10.131442157664495 -0.019165125084116 -0.054151228125543 -10.206860815386529 -0.01920123742417 0.023883347194996 -9.936587459605301 0.000004562949366 -0.130531042863851 -9.951448129444186 -0.000047007544568 -0.050608750198314 -10.11799149547373 -0.000054076435598 0.17399872432459 -9.890949900779109 0.000080915547234 0.167621160423974 -9.911328492975978 0.000123788291215 -0.067475038439932 -9.989306584180623 -0.000066471332326 0.038258155987449 -10.152363385445231 0.000046473723059 0.05197071847571 -9.862091322871082 0.000033308338103 -0.126893137105159 -10.020682657166404 -0.000089826749116 -0.005992570433636 -9.856287809348448 0.000045412703991 0.009641591373964 -9.968374410631917 -0.000005638469856 -0.080048354931189 -10.046477333077204 -0.000041047731757 0.086651002656364 -10.030867544485353 0.00002501525781 0.042304711389911 -9.974184427688444 0.000002313566946 -0.018786352460589 -10.17391102760638 -0.000028209217256 0.096509964989254 -9.968079728501369 0.000056996798251 0.019630234022705 -9.963673776498638 -0.000005298312398 -0.084751605828083 -10.058188343468583 -0.00001401025582 -0.050446743193981 -10.044405710751844 -0.000067497336339 0.043807707219319 -10.110212974260097 0.000021070302023 -0.045319070101157 -10.033308190180684 -0.000014001195438 -0.054073374182551 -9.792691565379647 0.000011344349883 0.017639459818993 -10.06678748411024 -0.000025203080579 -0.248760430545959 -10.00698191540708 -0.000089661835466 -0.053657181437091 -10.173946348910167 -0.000007400760517 -0.017881722465546 -9.972124700465834 0.000300640414346 0.028608878154869 -10.130464081095653 0.000295580591823 -0.044789531912052 -10.015301840748934 0.004213736446918 0.076368628137741 -9.934543848413638 0.004275498588807 -0.034695597215303 -10.009999114556356 0.019161847021816 -0.09007849111551 -9.928240166372721 0.019143079456635 0.121119582135995 -10.10325926367929 0.000088319050677 0.080245544768526 -9.970319134931913 0.000029660611256 -0.014435982331761 -10.040508444478549 0.000006749200857 0.06102730770024 -9.931440815013852 0.000026135816907 0.116046531682349 -9.895801133598418 0.000063591819175 0.061753646377711 -10.028113203784978 0.000026584261351 0.1031228836557 -10.081226728010451 0.000062400560465 0.051052162531857 -10.051214197136538 0.000006493642174 0.012171962602859 -10.059793804704947 0.000006823962935 -0.039416345131295 -10.056609735415938 -0.000085933555759 0.012710482003321 -10.063394897186893 -0.000006892682118 -0.021347921304215 -10.166314036631062 -0.000017604523381 0.031263199520426 -10.116419905051529 -0.000013323429599 0.254086728324243 -10.071698725163442 0.000097306019654 0.081341519912729 -9.751107028379687 0.000024466576169 0.074099977077104 -10.08833859415614 -0.000005556852962 -0.136215080950948 -9.922400606086544 -0.000064094868184 0.002728866986731 -10.035030495031043 -0.000044458464225 0.056081087436805 -10.020073922019286 -0.00001691957867 -0.144826603587458 -9.988551308799824 -0.000073913904796 -0.08358560730357 -10.161803799499502 -0.000091891991981 0.136810131309869 -9.89163758303077 0.000119939583035 -0.041089666611308 -10.165914304781706 -0.000018834708501 0.123802317309487 -10.099736373663204 0.000047079729601 -0.075519190014126 -9.932805840582422 -0.0000474509782 -0.112868374645714 -9.919231959698699 -0.000382967169716 0.106882668296256 -9.964952341092717 -0.000249408605428 -0.127282325249355 -9.892941343512092 -0.004305958193167 0.004969263578334 -9.872493567004748 -0.004247497425605 -0.085837350960943 -10.08257516627309 -0.000031616054898 -0.079427757188977 -9.997059290925563 -0.000037415242245 0.088081932700556 -9.976396943212858 0.000040168109216 0.012675500420919 -9.869887218643381 -0.000056736387493 -0.138835568546257 -10.12224778571245 -0.000122014667693 -0.019896430077122 -9.99968998572589 -0.00004094440497 -0.102915336806576 -9.899057452191288 -0.000075501087827 0.133493873299051 -9.997006199641202 0.000049440621307 -0.006252208967159 -10.080055006939627 0.000048466068286 -0.1383667518292 -10.006742687415054 -0.000040401170987 -0.026956072214503 -10.016901574425928 -0.000016448885594 0.152205932361332 -9.919962759424955 0.000114936469297 0.012367365836808 -10.010247595555908 -0.000015009071892 -0.015154397740665 -9.8395117249517 -0.000036775207098 0.052691587615547 -9.843538040908131 0.000053060433731 0.015692258240336 -9.972710159419236 0.000000260336228 -0.015307031147525 -9.988794217974707 -0.000012999768 -0.079826509205887 -10.091353820151022 -0.000032431623082 0.094870020592379 -10.083746309248955 0.000047482612464 0.021800046685415 -10.035212482868829 0.000055316461492 -0.106065072585104 -9.87401221821492 -0.00002714141223 -0.150261886148154 -10.224771328420024 -0.000017996614969 0.114853154350456 -10.12890769013951 0.000076109930438 0.02707637087292 -10.099719414398535 0.000082094931492 -0.070958825111503 -10.021721913007529 0.000009351929384 -0.087758911154597 -9.965739170275933 0.000290523723516 0.039445192150155 -10.131756119952746 0.000338272188336 0.208626852391112 -9.973376059346966 0.004355697934967 -0.010973198595886 -9.956619864814389 0.004239555453866 0.031897895532925 -10.045197269961383 -0.000010481534092 -0.056252246643782 -9.999203486668657 -0.000053335110752 -0.046298513357089 -10.131592775183984 -0.000038268115468 -0.016955861006327 -10.120133077991618 -0.000028108171295 -0.179626556742981 -10.061673992363858 -0.000128992151476 -0.10639541473529 -10.012224176110431 -0.000040333066136 0.104216572518752 -9.933012197471649 0.000047646366191 0.010988150941826 -10.128950744770908 -0.000029386151916 -0.167647333986922 -9.858761182116977 -0.000106853712864 0.096467351510601 -9.862687910428864 0.000061104387617 0.098249775304392 -10.229477664815239 0.00001426650036 0.124646283300884 -9.969978775428821 0.000092223593233 0.124528747220437 -10.055190049172145 0.000064634300132 -0.023638332487934 -10.07926354301974 -0.000061945476588 0.122021606495682 -10.044239450286804 0.000055159105263 0.002556760451981 -9.995497117874317 -0.000036695722809 0.028210085511995 -9.972452300871369 0.000069152343385 0.139481805297534 -9.911490633065839 0.000076912281806 0.030178593415098 -9.769215095889111 0.000006870872715 0.008304848076414 -9.730720923917405 0.000036106273843 0.144293927619938 -9.94279016051054 0.00009233624637 -0.065222228513225 -9.939367468154074 -0.000075125196391 0.070371715298643 -9.952482232019051 0.000051783714547 -0.102641782211908 -9.947718844201885 -0.000097129403668 -0.031601371413419 -10.065440749361411 -0.000014525367196 -0.01556841216376 -10.176855397746026 -0.000128624978777 -0.090724242908355 -10.059353005001109 -0.000208001033839 0.015084324315601 -9.970294116749457 -0.000287460272453 -0.153437234135325 -9.983993975234778 -0.000351366841882 -0.07598884123049 -10.042138699125321 0.000028937496858 0.083782408959831 -9.80358195825924 0.000057829236375 0.047508022727758 -10.033593505969097 0.000020945905929 0.14674945017485 -9.889982715068067 0.000055409387516 0.043881611022881 -9.959005828421263 0.000058719317841 0.134438925399038 -9.826918406862868 0.000073407567349 0.07242153619632 -9.925611420856963 0.000059819851744 -0.020565666497302 -10.040029670275313 -0.000022683063476 -0.109377003522484 -10.047192498409293 -0.000072115430886 -0.097585800115591 -10.205024688112731 -0.000052993074578 0.027799665727128 -10.07514643472585 0.000000417916283 -0.038418803422837 -9.920491566194427 -0.000071669420398 0.023344644225529 -10.086290738591451 0.000000990412596 0.075285753711301 -9.939676531888813 -0.000005057480727 -0.126664325562054 -10.165525746199098 -0.000074267454915 -0.069888214026085 -10.14844292378107 -0.000017397907565 0.015615534884393 -10.06770425157006 -0.000018193357888 0.089403783337245 -10.016899757144419 0.000090297913735 0.076219185737204 -9.966445043182166 0.000015494980636 -0.247874579177595 -10.176319388463039 -0.000088713249771 -0.07330930284576 -10.096321131824435 -0.000027105888607 -0.152420132456387 -9.955734377088028 0.000000751114578 -0.038276713143728 -10.072433552962723 -0.000021647466786 0.165974978660283 -10.013729222140409 0.000129499308425 -0.006335876409892 -10.136912442670596 0.000061825844558 -0.058116924102356 -10.091280885416245 0.000089441183471 -0.060733452986523 -9.907510742887156 0.000133451435925 0.107417628756032 -9.880467559227013 0.00031673516174 0.043809180197764 -9.785974417226946 0.000349389017408 -0.01334151551417 -9.874001650057805 -0.000027911372553 0.059591741756132 -9.967598337672541 0.000061723096856 -0.03934956270396 -10.125746362019758 -0.000014681566734 0.02590013604528 -10.025669542027385 0.000026296376078 0.117850036419846 -10.117522105350931 0.00008199003297 -0.211047497317395 -9.955995475119947 -0.000089292853922 -0.064562883286306 -9.791535693382629 -0.000038953202477 0.177915390166013 -10.032546847371071 0.000072350172675 0.001528670016979 -10.016983282180513 0.000021992635249 -0.061225400372883 -10.080374899074743 -0.000028582222041 0.183320842251176 -10.052873688753532 0.00007678582115 -0.121709277005764 -9.932346363592353 -0.000076546621484 -0.118318276986378 -10.06325339530146 -0.000077114530942 0.052755340415766 -10.267817691391196 0.000026863867107 -0.014630502342208 -10.042064271622372 -0.000063055865381 0.017940280929018 -10.180746381643992 0.000009513036273 -0.109607048945032 -10.047237748125278 -0.000061096580452 -0.019566855647826 -9.889621771962709 -0.000007308958069 0.066983669033038 -9.897332591414029 -0.000018285561618 -0.032012726834202 -10.099119273966211 -0.000007505929502 -0.016928501690042 -10.089157483087723 -0.000065388839827 0.008810490242702 -9.960683391857479 -0.000007587048469 -0.045600017617931 -9.959333773276173 -0.000039087820971 -0.161224103718302 -10.089550333699338 -0.000356603876297 -0.240551879133801 -9.825877321021455 -0.000449224424205 -0.0554800133127 -10.017498937882653 -0.004280156300154 -0.065749704782225 -10.044398107316102 -0.004303071544228 0.109789953384591 -9.956156629770195 -0.019164647857324 -0.097681740400191 -9.994729236375859 -0.019193921080723 -0.232707989522027 -10.10133540943359 -0.000124686709487 0.034581929841663 -9.887596723106668 -0.000018286109095 0.029289638981322 -10.138166296178744 -0.000020048028411 0.104275977952922 -9.94033601917519 0.000008776323866 -0.050540700332001 -10.232977542692531 -0.000050164032202 -0.019535846628491 -9.941400157423153 -0.000037848774742 0.000311315204788 -10.021338623665207 -0.000045203949012 -0.087614086993096 -10.059238060453879 -0.000049951831653 0.074118020642229 -10.137044964513624 0.000037810411696 0.131221081265381 -10.086587956549534 0.000073940968478 0.067466247816136 -10.039247926006903 0.000006503897989 0.05779278595944 -9.811400473360822 0.000029678484302 0.044407682841576 -9.987967108718648 -0.000001263247566 0.195584387156797 -10.09309160984983 0.000112365142825 -0.02050080173436 -9.937132712105633 -0.000027076858516 -0.046622309790452 -10.027306686009096 0.000021585065607 0.091618967344323 -10.062019795031283 0.000031276197423 -0.080872609677155 -9.941431273073485 -0.000014588363731 0.033275213573681 -9.93524066340567 -0.000001299620553 -0.108798836815756 -9.953179593742512 0.000037809278886 0.038311364815095 -9.919699656738556 0.000016080138808 -0.172793206573634 -9.963740618099981 -0.000024249034725 -0.031882783290411 -9.96863077752867 -0.000004762276551 -0.025543201256669 -10.037559547108025 0.000253262003988 -0.01431932092381 -9.888081863881428 0.000349232029937 0.226660368057547 -10.194773902644974 0.004394479154943 -0.007710061492094 -9.943637432761458 0.00429854272319 -0.027016420198531 -10.057775859104634 0.019169947556815 -0.110437809793306 -10.058306858847118 0.019160658918021 0.070473883145205 -9.979253483500377 0.000038183598562 -0.154282382509293 -9.866266073270745 -0.000084564785944 0.033713174487498 -10.230978159445051 0.000026745567422 0.00184828673287 -9.806419052309238 0.000011845639087 0.093169870794495 -9.851766927308367 0.000031474797227 0.00492206906704 -9.903632013521941 0.000014576634252 -0.113591093403665 -9.923356720561014 -0.000100748806793 0.175647383486389 -10.027711448714033 0.000039327128892 0.050413765635785 -10.056100423097211 -0.00000283666909 -0.123925917305733 -10.116531123129867 -0.000065700200456 0.048146499642111 -10.110388518834927 -0.00002930166934 -0.106494357208468 -10.024885656474279 -0.000041353510047 -0.1285899278719 -10.051171338942421 -0.00005457601894 0.033318931696455 -10.044986851671094 0.000041161819361 0.166700929944254 -9.979652777800162 0.000090061055628 0.015395711265282 -10.162417479916668 0.000030199113213 -0.151305183365445 -9.977301439043904 -0.000058656389771 -0.14662497858693 -10.046381585882081 -0.000065513545027 0.170280100462162 -10.01687984569482 0.000028942733373 -0.089237651836815 -10.008694651496661 -0.000034582802727 0.080157223509315 -10.133172519790085 -0.000016112282462 -0.090038179505895 -10.069108058501282 -0.000151098526779 -0.221154215470872 -10.177029972897477 -0.000232943400554 -0.168465972120687 -9.931329352689817 -0.000453170942419 0.106216710330298 -9.993488719731703 -0.000337021913405 0.012096663450581 -10.00268023962095 -0.004420367980513 0.121658101804131 -10.03777001205026 -0.004332181308094 0.017720307079534 -10.199095083758493 0.000029203635392 0.076185072549113 -9.869483306800666 0.000030841110139 0.111364314447533 -9.991115836526708 0.000018861499232 0.018483009795875 -10.086097712020633 0.000041362115603 0.033493420414597 -10.012809902742561 0.000016070775277 0.009168400006389 -10.054632776657117 0.00000536061572 0.148425302606626 -9.991306721089783 0.000061840908469 0.076409015663132 -10.013872176235486 0.000038166616158 0.035922146401247 -10.045114149539391 -0.000001213324826 0.076438651003431 -10.097639746252854 -0.000013616247629 0.133079699277139 -10.012427656241217 0.00007607694664 0.011454847325889 -9.856463153411521 0.000026993818484 0.048224821831463 -10.174162915689692 0.000023963028596 -0.061127816535947 -10.072115772230376 -0.000048597851026 0.146232245882643 -9.926857738464355 0.000111550310161 -0.106148086874602 -9.935019406941541 -0.000045382288611 0.09433054926488 -9.90386042871202 0.000035189071067 -0.136053521285112 -9.899369383181973 -0.000053051973475 0.036586641041525 -9.9