<?xml version="1.0" encoding="UTF-8" standalone="no" ?>
<VTKFile byte_order="LittleEndian" type="UnstructuredGrid" version="0.1">

  <UnstructuredGrid>
    <Piece NumberOfCells="0" NumberOfPoints="801">
      <PointData>
        <DataArray Name="mass" NumberOfComponents="1" format="ascii" type="Float32">1 1 1 1 1 1 1 1 1 1 1 1 1 1 1 1 1 1 1 1 1 1 1 1 1 1 1 1 1 1 1 1 1 1 1 1 1 1 1 1 1 1 1 1 1 1 1 1 1 1 1 1 1 1 1 1 1 1 1 1 1 1 1 1 1 1 1 1 1 1 1 1 1 1 1 1 1 1 1 1 1 1 1 1 1 1 1 1 1 1 1 1 1 1 1 1 1 1 1 1 1 1 1 1 1 1 1 1 1 1 1 1 1 1 1 1 1 1 1 1 1 1 1 1 1 1 1 1 1 1 1 1 1 1 1 1 1 1 1 1 1 1 1 1 1 1 1 1 1 1 1 1 1 1 1 1 1 1 1 1 1 1 1 1 1 1 1 1 1 1 1 1 1 1 1 1 1 1 1 1 1 1 1 1 1 1 1 1 1 1 1 1 1 1 1 1 1 1 1 1 1 1 1 1 1 1 1 1 1 1 1 1 1 1 1 1 1 1 1 1 1 1 1 1 1 1 1 1 1 1 1 1 1 1 1 1 1 1 1 1 1 1 1 1 1 1 1 1 1 1 1 1 1 1 1 1 1 1 1 1 1 1 1 1 1 1 1 1 1 1 1 1 1 1 1 1 1 1 1 1 1 1 1 1 1 1 1 1 1 1 1 1 1 1 1 1 1 1 1 1 1 1 1 1 1 1 1 1 1 1 1 1 1 1 1 1 1 1 1 1 1 1 1 1 1 1 1 1 1 1 1 1 1 1 1 1 1 1 1 1 1 1 1 1 1 1 1 1 1 1 1 1 1 1 1 1 1 1 1 1 1 1 1 1 1 1 1 1 1 1 1 1 1 1 1 1 1 1 1 1 1 1 1 1 1 1 1 1 1 1 1 1 1 1 1 1 1 1 1 1 1 1 1 1 1 1 1 1 1 1 1 1 1 1 1 1 1 1 1 1 1 1 1 1 1 1 1 1 1 1 1 1 1 1 1 1 1 1 1 1 1 1 1 1 1 1 1 1 1 1 1 1 1 1 1 1 1 1 1 1 1 1 1 1 1 1 1 1 1 1 1 1 1 1 1 1 1 1 1 1 1 1 1 1 1 1 1 1 1 1 1 1 1 1 1 1 1 1 1 1 1 1 1 1 1 1 1 1 1 1 1 1 1 1 1 1 1 1 1 1 1 1 1 1 1 1 1 1 1 1 1 1 1 1 1 1 1 1 1 1 1 1 1 1 1 1 1 1 1 1 1 1 1 1 1 1 1 1 1 1 1 1 1 1 1 1 1 1 1 1 1 1 1 1 1 1 1 1 1 1 1 1 1 1 1 1 1 1 1 1 1 1 1 1 1 1 1 1 1 1 1 1 1 1 1 1 1 1 1 1 1 1 1 1 1 1 1 1 1 1 1 1 1 1 1 1 1 1 1 1 1 1 1 1 1 1 1 1 1 1 1 1 1 1 1 1 1 1 1 1 1 1 1 1 1 1 1 1 1 1 1 1 1 1 1 1 1 1 1 1 1 1 1 1 1 1 1 1 1 1 1 1 1 1 1 1 1 1 1 1 1 1 1 1 1 1 1 1 1 1 1 1 1 1 1 1 1 1 1 1 1 1 1 1 1 1 1 1 1 1 1 1 1 1 1 1 1 1 1 1 1 1 1 1 1 1 1 1 1 1 1 1 1 1 1 1 1 1 1 1 1 1 1 1 1 1 1 1 1 1 1 1 1 1 1 1 1 1 1 1 1 1 1 1 1 1 1 1 1 1 1 1 1 1 1 1 1 1 1 1 1 1 1 1 1 1 1 1 1 1 1</DataArray>
        <DataArray Name="velocity" NumberOfComponents="3" format="ascii" type="Float32">0.111311441847206 -10.030968839343217 0.000125784209413 0.060814678193188 -9.937657798684414 0.000026346562808 -0.071224718155587 -9.884652606283064 -0.000035293862034 -0.171950195966901 -9.958177232120303 -0.000089941909519 -0.040135537791493 -9.77479824959315 -0.000181380797775 -0.227368590848233 -9.977096709134944 -0.000288052188318 0.086668387519801 -9.861524632375374 0.000058950817727 -0.103318459354123 -9.970154915999471 -0.000100760109519 -0.035921665299546 -9.967087816896949 -0.000151810924927 -0.111464121649628 -10.032999784845066 -0.000124609375621 0.004606413883152 -9.878131264654023 -0.000200563835426 0.084529676906366 -10.148467917503149 0.00007260355185 0.222532588563141 -9.958729227325509 0.000174005091082 -0.000665219958907 -9.954016422353131 -0.000030692924332 -0.075057634798241 -9.902899130360407 -0.000111548998961 0.015421727964882 -9.849454557649162 -0.000008341899887 -0.02281131356235 -9.912809549796879 -0.000022290376386 -0.132955524933505 -10.084848559602806 -0.00016491812081 0.005358089898056 -10.083048280685484 -0.000074223180316 -0.106203888467992 -9.947579521884817 -0.000005461362041 0.078730911063322 -10.030460905605976 0.000057291489516 -0.006904467325602 -10.067132179988191 0.000077939633684 -0.170647874756628 -9.969179041131115 -0.000217429867755 -0.064127716180012 -9.872013397296858 -0.000031677671294 0.015644051230505 -9.796132450990365 0.000110317328097 0.003852150204273 -10.053183277548237 -0.000003088899363 -0.010628816310436 -9.924023473358027 -0.000115152836392 0.031954238534177 -9.993413469631715 0.000046513995872 -0.089245321927681 -9.897931019014173 -0.000191488395144 0.131825236011493 -10.154550575904684 0.000153121559486 0.05060619758553 -10.067785918285663 0.000070535665785 -0.016023954399433 -9.901950850937769 -0.000128255609576 0.097487670955917 -10.045495701552422 0.000122605365549 -0.024323784877264 -9.964216259733487 -0.000114938730724 -0.107475198389012 -9.869253191593243 -0.000109162252767 0.052896116195014 -9.988431335642973 0.000012986138075 0.039795084014422 -9.908387641707856 0.000139050938895 -0.011147451912577 -9.923321695890213 -0.000065318540061 -0.039471071411732 -9.88199616883297 0.000013280862064 0.026503622187005 -9.942863088610752 0.000066828594312 -0.009247698042632 -10.145844115839537 -0.000015527855108 0.194237658234647 -10.091107252571296 0.000245689170885 0.079939722124812 -10.14644057749465 -0.000004434004793 0.101134233151363 -10.068356151418188 -0.00001145402137 -0.029039758389421 -10.15079974727235 -0.000067022684672 -0.083435681377574 -10.056670119951439 -0.000050126369632 0.141809237271182 -10.207267059598395 0.000099728103508 -0.002736055467255 -9.844924129820674 0.000106360229771 0.153927281476809 -10.09902785533815 0.000187614641616 0.134023865869874 -10.068272907439141 0.000211492097053 -0.076369646106742 -10.097228781165876 -0.000022920342973 0.049402019502535 -10.14577224978563 0.000018515088973 -0.070488282556216 -9.955053849683257 -0.000137145407144 -0.035042461533133 -9.975360250170571 0.000024970394335 -0.069425140444417 -9.950985087386208 -0.00006786565198 -0.066231208129426 -9.995459356178369 -0.000037609876342 -0.067296801057246 -10.052072460667985 -0.000111807970443 0.083495631933481 -9.934158225616294 0.000146949670797 0.007560773997898 -9.986480688189038 -0.000027636185854 0.068874256030047 -9.866205693803686 0.000152203460146 0.00386110609149 -10.100069781394744 -0.000095896909187 -0.015999398913259 -9.848942338320644 -0.00014284382874 0.043809754213857 -9.85383122839465 -0.000019018491323 0.035937959979014 -10.115534206592971 0.000039622786277 -0.112004622867501 -10.034745786040657 -0.000097228686594 -0.205510457016396 -9.928225761960654 -0.000114677245974 0.223258380222947 -10.127546885829636 0.000292466696266 0.029842273570657 -10.059274848391235 0.000123227896589 0.019233692781052 -9.844501514197491 -0.000043158795574 0.020436606646143 -9.903652002528519 0.000083723739973 0.135542834913979 -9.929318363503343 0.000229947190421 0.007016538663564 -9.992107546953099 0.000058054400169 0.209681269437832 -10.004094549763666 0.000308144506501 -0.034905609794337 -9.96851112331313 -0.000025433096451 0.074684371382536 -10.123690711954731 0.00002221624089 0.061655182860652 -10.126294524885356 0.000074223505354 0.115488578841111 -10.103851239080745 0.000148235736827 -0.072284343110133 -10.11092706184254 -0.000121171963864 -0.064503676848291 -9.981223179372035 -0.000083388367929 -0.119393867893383 -9.937670144767285 -0.000154774103782 0.001069933611046 -9.953571261243887 -0.000034579403351 -0.17521034223733 -9.960046514491948 -0.000240051257884 0.033772459792129 -10.057401767897511 -0.000054665109702 -0.075476381052947 -9.760255098274751 -0.000026952770055 0.066613197883912 -10.00640392248925 0.000106755026592 -0.043730392195688 -9.907098179163743 -0.000043473152462 -0.169059206940874 -9.895944677302969 -0.000182670155432 0.062378538291333 -10.050487926235622 0.000058463982635 0.203429043670639 -10.01824359930454 0.000290905899617 -0.017822749278811 -10.195206740601485 0.000039025271742 0.057807377714117 -10.075216680635732 0.000141107513858 0.011628641421651 -10.065269953584094 0.000024034989356 -0.074121552229588 -9.815589671173955 -0.000110744886875 0.141523250860186 -9.890558689435005 0.000179722105588 -0.052140362795671 -10.103941834349472 -0.000196179937492 0.136307332746306 -9.845268331315088 0.000197256483617 0.11939534862316 -10.087437005363192 0.000063286709051 0.064944622603904 -10.077779944478719 -0.0000033427381 0.053132645229277 -9.97981864320602 0.000039204175256 0.079585059168103 -10.122784819822254 0.000099983829987 0.006756730336934 -10.084877744501249 -0.000098087022681 -0.035976185411387 -9.947245879382546 -0.000135939294294 0.027939680939442 -10.057887516053968 0.00002306310544 -0.082707081947133 -10.029569457267391 -0.000201099083939 0.151561782207722 -9.823004603478751 0.000116483879075 0.097562095243768 -10.122002850604117 0.000086883313096 0.095748811886662 -10.06936697013094 0.00012551335866 -0.056623320682948 -10.102258651571894 -0.000058805394636 0.098435886137528 -10.049160341168408 0.000108407341892 -0.131860464053789 -10.026996168594524 -0.000171114344074 0.1026299490787 -9.923968350299869 0.000108934008528 -0.074028367499073 -9.965593983929876 -0.000090557745518 -0.05612274349048 -9.869823879052188 0.000016177979444 0.039874599874163 -10.030427877455198 -0.000017268326997 0.14241059933725 -9.971719932379262 0.000312030558375 -0.028165171001644 -9.946433802919532 0.000031656572703 -0.006616854622574 -9.733392998407718 0.000094433228811 -0.075850539827495 -10.046781240903684 -0.000062246157651 0.112451728070455 -10.001683057563447 0.000166849837159 -0.012314227787186 -9.884269765746556 0.000021045086281 -0.00359596725756 -10.188962885353877 0.000011902454133 -0.095634203022592 -9.938484800590361 -0.000090500985069 0.042492522205488 -10.088485302628454 0.000034006148139 0.250574700676357 -9.997897787488915 0.000243947879924 0.076189454429667 -9.953142102836734 0.000018726788783 -0.06096293146529 -10.050893743820268 -0.000103148484121 -0.000464540657446 -10.100974965832258 -0.000065728580293 -0.094128761815794 -10.03570537009176 -0.000063810883891 -0.019967208394172 -9.953235467443738 -0.00006584295023 0.076548630223535 -9.981338587487368 0.000071481653061 0.040181057799396 -9.960147592409538 0.000047675408726 -0.004998854371769 -10.206207913047361 0.000020796296735 -0.108969850065925 -9.840200064240548 -0.000314439592085 0.065770789306759 -10.146278386128479 0.000133871478481 -0.078970034395265 -9.969856125921591 -0.000261928106851 -0.089714484567539 -10.136369155126353 -0.000043841141782 -0.026789699858923 -10.064758980461626 -0.000113345013415 -0.011776194321921 -9.932052213919238 -0.000052961993939 0.056062876719532 -10.15555206359055 0.000012246643407 0.072768297971298 -9.882220485726059 0.000191473957411 -0.004516271317142 -10.12353795210913 -0.000027962495528 0.088336069666884 -9.973078962746353 0.000220455664006 0.008819338072068 -10.14417755644976 -0.00005249346251 0.159421542737862 -10.199076526527751 0.000295931691464 0.115448071818729 -10.036777113527139 0.000098126169118 -0.114657556201531 -10.077709328373361 -0.000084414058675 0.135222091555917 -9.92201370390268 0.000098590432441 0.070050171390244 -9.93478916223202 0.000100795608797 -0.034639909288257 -10.06161866224314 -0.000042248638459 0.067971545699328 -9.960003236008326 0.000072311782593 -0.062083295086115 -10.007352537318237 -0.000193389144483 -0.146945369959526 -10.017425055108678 -0.000109066384586 -0.081737896512938 -10.017252598199009 -0.000112656914637 -0.129490560665288 -9.918511851547921 -0.000151087885276 0.025460363547658 -10.010748061858147 0.000035074849258 -0.022461539037661 -9.855936148911825 -0.000086477680081 0.183310156812386 -10.049785116992439 0.000188819442612 -0.096526955078899 -9.978242677956757 -0.000207282973955 0.249751684274304 -9.907622736193337 0.000255564475451 0.1185788268942 -10.168892805269566 0.000047257424689 -0.033596102098748 -9.933195857201779 -0.000133495652808 -0.009120719017292 -10.124951987638298 -0.00003963853257 0.237841711548224 -9.943998797397571 0.00026199043096 0.169346565201427 -9.870940364581461 0.000178196049516 -0.051155661689687 -9.938566726062712 -0.000157069818085 -0.010187846397765 -10.146766451132656 0.00008580129824 0.084883367076111 -10.050348596105028 0.000065660544372 -0.032600383810577 -9.918800872699109 -0.000073269892037 -0.052863441130844 -9.896145957458117 -0.000261584132419 0.009129682235659 -10.023072022453244 0.000021333804954 -0.072570741284544 -9.919249678566157 -0.000253000582599 0.040494023847636 -9.894954117701989 0.000125209060853 -0.070853028147844 -10.098339282737218 -0.000148392490531 -0.12435785808919 -9.952512353518319 -0.000183795798645 -0.072274005811215 -9.970621588183258 -0.000061971880326 0.09148641105236 -9.931183255610332 0.000084602203619 -0.128952567740334 -10.041708104041215 -0.000118716186841 -0.182414255329886 -10.064079739148138 -0.000141365756608 -0.135053436010456 -10.056849982916797 -0.000224611725244 0.011516800901323 -10.119858256540793 0.000099554157164 0.003304910182802 -10.029354032817867 -0.000160307843097 -0.149075384775978 -10.142097102206597 -0.000245916836236 -0.088753306636476 -9.900937995728556 -0.000217341585268 -0.1285143142089 -9.916287491845647 -0.000404697126839 0.009852071824246 -9.937830477673851 -0.00028273358498 0.058358773198738 -9.883164385014316 -0.000323970247575 0.112862331432672 -10.10024840177857 0.000120435532119 0.011679720317942 -9.887476376935259 0.000100733514491 0.127331352336343 -9.850766232642821 0.000163844547541 0.04638359266746 -10.239014640004568 0.000027759462024 -0.086636951254606 -9.864027890119933 -0.000164387428854 0.102858868545561 -9.943987345090365 0.000130595188576 -0.042304792175579 -9.979770335604309 -0.000065910816532 -0.118701480576193 -9.956800596089316 -0.000152784297934 0.17593610003069 -9.94061612481835 0.000312609859015 -0.088214146246439 -10.104883610602954 -0.000147373801971 0.039806882602924 -9.90912031645683 0.000076640899815 -0.104368858446908 -10.053845469798938 -0.000084494369557 0.035038091327045 -9.921749450489333 0.000017636230778 0.108270996277574 -10.128817859552443 0.000105676543387 0.012689842943448 -10.008247974354848 -0.000016640383064 -0.122994369076478 -9.998457793343746 -0.000237033287453 0.095606619374184 -9.950366475411476 0.000103926955229 -0.080038445334632 -9.847916177036893 -0.000112084366802 0.108009545772943 -9.984766232402853 0.000159905720597 0.010506747257287 -9.975157369118238 -0.00003898238605 0.008692479077341 -9.928107698540149 -0.000008094086598 -0.031696140100069 -9.71037468474438 0.000031650240093 0.124406762060541 -9.96223273270985 0.000100295492013 0.046375686789316 -10.012159380551074 0.000145046151332 0.099696920294394 -9.975352172336281 0.000171675754171 0.06857878135464 -9.874805631606936 0.000154988994733 0.06331952785366 -9.934962645196256 0.000146018545299 -0.148284650870879 -9.940796438463016 0.000086377050673 -0.011011387265471 -10.114687177117519 0.000158255731473 0.031834561268435 -9.980176149646621 0.000404267090471 0.083070369176651 -9.946442405462664 0.000406282474019 -0.138290037089633 -9.827397296567362 -0.000240466721228 0.11354054959296 -9.83235683165489 -0.000027552397437 0.012886951046936 -10.110964631544487 0.000080407268439 0.007658506245632 -10.042027114627407 -0.000145086471839 0.189863504618266 -9.985051325179128 0.000136227755015 0.127483229524726 -9.995957374837008 0.000107859316672 -0.101114349555968 -10.002985800875885 -0.000233635537146 0.001369062029418 -10.062921199564583 -0.000127324758764 0.118926777579241 -10.042782794112952 0.00005697704532 0.20992871545485 -10.072547113161765 0.000277089918416 -0.108398607587633 -10.024472059998983 -0.000149612460684 -0.147632027900654 -10.055867107154695 -0.00021880950527 0.030511228842192 -9.874414528880878 0.000045232354394 0.214522586023448 -10.133366540914293 0.000170705935655 -0.000865571330104 -9.98106239646877 -0.000024592179213 0.170494916193879 -9.886527006883954 0.000181874868495 -0.068625051189956 -10.067406618941552 -0.000068302172332 0.02047057093459 -9.932147213957196 0.000057507140298 0.169049520099423 -10.026275640373047 0.000230417135924 -0.020075156597981 -9.886857561635493 0.000069578424284 0.033466668055568 -9.978786826632991 0.000053970561036 -0.20277853984234 -9.955056769795453 -0.000248321739465 -0.151011892701908 -10.01160634153416 -0.000059490246549 0.063996754266354 -10.003328511165346 0.000040589680783 -0.133018818250087 -10.017380794172546 -0.000149528222703 0.073113339403668 -9.935111250841857 -0.000318054742637 0.040896388881902 -10.020155552195686 -0.000398915514105 -0.17467528444074 -10.108379223348129 -0.006605593153263 0.194222580342703 -9.815895289197231 -0.006256256536083 0.017525681355714 -10.138070363772533 -0.029476051739561 -0.064499060581768 -10.196884094579936 -0.029561400529142 0.023889356610207 -9.938230494645804 0.000010799790465 -0.130567781968444 -9.950786478319827 -0.000111330481276 -0.050660682695847 -10.114746618940488 -0.00012812509816 0.174074022976402 -9.892293471917519 0.000191400106371 0.167736128044262 -9.915048033629382 0.000293042406322 -0.06754411159034 -9.987424230301562 -0.000157259159544 0.038304272197748 -10.149279622992049 0.000109984499696 0.052002417064725 -9.863074631097861 0.000078803008877 -0.126976574954017 -10.021365536030236 -0.000212677956203 -0.005944178302923 -9.857944761359908 0.000107391612006 0.009636749121969 -9.969311247991547 -0.000013444227274 -0.0800842026631 -10.044283479017494 -0.000097428074868 0.086668121864686 -10.031536901305069 0.000059106616627 0.04230236985676 -9.974740391367446 0.000005239371592 -0.018813297375978 -10.170954358256697 -0.000066960923609 0.09655671872347 -9.968871389025125 0.00013469805536 0.019628684863701 -9.966110931981573 -0.000013001941614 -0.084766624241875 -10.057892182656065 -0.000034035158992 -0.05051234333723 -10.043642899503093 -0.000160541804333 0.04381888067086 -10.107227248564607 0.000048005464036 -0.045329537245546 -10.033646540693924 -0.00003509717439 -0.054059619991682 -9.797083341746754 0.000020705743011 0.01761110124607 -10.067376847265672 -0.000065928117755 -0.248854776642139 -10.004974337217387 -0.000242199603132 -0.053676701841561 -10.172622020405607 -0.000047398412201 -0.017721983786226 -9.973268101602864 0.000456734780886 0.02875863722855 -10.128680932888946 0.000444715993557 -0.042533827553216 -10.019429871515747 0.006456069831639 0.078681781146357 -9.931606981233575 0.006602420299962 -0.024379745926047 -10.016894551689637 0.029468336091623 -0.079778940209551 -9.921440847761366 0.029423901982184 0.121205749699295 -10.101641176913834 0.000209055381322 0.080270611433076 -9.971061657534355 0.000070372305338 -0.014427987758726 -10.039858951800493 0.000016007064791 0.061050466432036 -9.932573157176211 0.000061968464976 0.116108368209466 -9.898513223536584 0.000150768972133 0.061777970441942 -10.027488915934772 0.000063025093487 0.103184093085729 -10.079516702704305 0.000147737160189 0.051055910694638 -10.051086631640441 0.000015520456174 0.012175786028306 -10.059993335815518 0.000016347399859 -0.03949980606094 -10.057486491582539 -0.000203354403522 0.012700497240348 -10.063829045867747 -0.000016138653076 -0.021357743481651 -10.164607217026125 -0.000041516478139 0.031249406237501 -10.11284799787702 -0.00003134197481 0.254176280033346 -10.072626118436434 0.000230762411872 0.081366610471002 -9.755623475941448 0.000058190697444 0.074093107731588 -10.087764970029157 -0.000012547576702 -0.136264620624775 -9.921792996476494 -0.000151138146705 0.002685047344438 -10.035106377761235 -0.000103976531502 0.056061026839777 -10.020420468637424 -0.000038886648437 -0.144890425512374 -9.988111992624102 -0.000172205539318 -0.083673707160461 -10.160667353500346 -0.000214615470059 0.136927368384548 -9.894227330435484 0.000291994595246 -0.041102238000839 -10.163881103631832 -0.000036457115139 0.123860824582532 -10.096663367894955 0.000145415405388 -0.075547417679818 -9.934897066269233 -0.00007841041086 -0.113100253086245 -9.922490487261491 -0.000644662294428 0.106773393706486 -9.961961531807622 -0.000328305912423 -0.129625243559438 -9.897732669305809 -0.006665382640219 0.002688606443754 -9.868658438096853 -0.006527210708878 -0.085866554079027 -10.080981628272792 -0.000074909838086 -0.079458370516035 -9.996702985565916 -0.000088648165202 0.088116729874053 -9.978510425896452 0.000095044264356 0.012619075281155 -9.872008129197734 -0.000134399561811 -0.138951694636783 -10.119135298636266 -0.000288855830882 -0.019938534980276 -9.998571824193847 -0.000097050955953 -0.102984792647162 -9.902440667902283 -0.000178856338856 0.133533129462661 -9.997130069561631 0.000117012079393 -0.006201194447099 -10.078039850627555 0.000114588807044 -0.138397553105514 -10.005958672710113 -0.000095827119319 -0.026971925694138 -10.017384308800001 -0.00003906477414 0.152316954350909 -9.920004409055153 0.000271783406693 0.01234962522083 -10.008884502283468 -0.00003572403781 -0.015194649507503 -9.84127910500829 -0.000087331441011 0.052743165494559 -9.846144955682485 0.000125189520355 0.01569370716363 -9.972591099685536 -0.00000000227399 -0.0153202053808 -9.98838865047016 -0.000031356556532 -0.079857383099822 -10.089901489907913 -0.000078080053886 0.094914938605732 -10.081183213103376 0.000111245915263 0.021850927460565 -10.037327467769714 0.000128086768778 -0.106088587627004 -9.877844155736739 -0.000067060164843 -0.150281413336317 -10.222132033828167 -0.000050779277288 0.114916360839023 -10.125889774922534 0.000172031836527 0.027136201659533 -10.099827512680381 0.000160555047143 -0.070969764382182 -10.023391359470541 -0.000011756703316 -0.087609950317105 -9.968875766925491 0.000425763182346 0.039635547872074 -10.127400589084564 0.000538760691084 0.211013949788227 -9.97787015995933 0.006783298982518 -0.008695887776433 -9.953497610385391 0.006508338227036 0.031884283431189 -10.045519598892454 -0.000024741693147 -0.056299365793681 -10.000593926989616 -0.000126255739938 -0.046336834674174 -10.130317326198263 -0.000090392356111 -0.016983536695537 -10.118213360504875 -0.000066414947713 -0.179746870724241 -10.061195333212561 -0.000305361914332 -0.106431473927288 -10.014111050996245 -0.000095351134961 0.104268270791853 -9.933431035777311 0.00011291072124 0.010961491826039 -10.125816684118297 -0.000069390170573 -0.167744515614406 -9.862354338802444 -0.00025268663028 0.096520489090791 -9.865738977395345 0.000144986153579 0.098255056652768 -10.225034635168097 0.00003395151633 0.124737822996565 -9.969970742950418 0.000218729711743 0.124585524396227 -10.056613357625908 0.000153478180243 -0.023694445166852 -10.077692260515914 -0.000146297117984 0.122070174916288 -10.043705539887128 0.00013127802336 0.002519772188223 -9.99553551422408 -0.000085783510128 0.028284500907663 -9.971325514078547 0.000164621304236 0.139551520910696 -9.910688512470729 0.000184086204096 0.030188907793467 -9.77232164547938 0.000018298388321 0.008347551620335 -9.733972118901656 0.000090031110075 0.14438241478642 -9.941441207842436 0.000223244165058 -0.065289564545693 -9.937673223148202 -0.000164590162055 0.070425161502993 -9.953310833647954 0.000135932958909 -0.102711657679247 -9.949859867676535 -0.000186554459928 -0.031594284754605 -10.064227441598039 0.000009183752952 -0.015621263956462 -10.175521246239414 -0.000173530532462 -0.090859480612282 -10.05651366193867 -0.000361491022313 0.014935572453878 -9.978789973262053 -0.000430028604737 -0.153642883742663 -9.977787544094225 -0.000581361415276 -0.075951067009671 -10.040135404602015 0.000068351664313 0.083833563826314 -9.806229004571513 0.000136778305592 0.047526844556278 -10.03306352858532 0.00004948100538 0.146797815339378 -9.88871331025118 0.00013110972389 0.043936455024134 -9.959374817436371 0.000138996452078 0.134509452641677 -9.82924158998555 0.000173640782041 0.07247589514948 -9.926859143097902 0.000141563644348 -0.020589577703159 -10.039627303607533 -0.000053802127792 -0.109444199347086 -10.046437459205235 -0.000170919993183 -0.097630564137136 -10.201354481955734 -0.000125789511483 0.027798064785899 -10.075004541398448 0.000000770649124 -0.038491157674315 -9.922932799972191 -0.00016997294036 0.023344685931801 -10.086851646286656 0.000001996487531 0.075278900235682 -9.941268029658282 -0.000012490528688 -0.126731593309554 -10.164044439791043 -0.000176398151717 -0.069900831975707 -10.145611515531265 -0.00004227943649 0.015594698012821 -10.067678135814468 -0.000044016700862 0.089491760361782 -10.019346812813477 0.000211778832103 0.076228763942234 -9.968351565582264 0.000034670077896 -0.247958793895125 -10.173186638675119 -0.000214653642842 -0.073334362772214 -10.09500905743147 -0.000068885598639 -0.152424849947892 -9.958068204140558 -0.0000115704819 -0.038306457125946 -10.073143610381997 -0.000064473895529 0.166068331757448 -10.014105334180577 0.000263106647701 -0.006297697356621 -10.134219272227764 0.000102909433678 -0.058099901105903 -10.091200692079157 0.000080650094603 -0.060671702908561 -9.906160084662224 0.000184905583016 0.107592217584431 -9.889019479694129 0.000499273548921 0.044018248686429 -9.78017672697775 0.000576615809586 -0.013372475792317 -9.876812238026492 -0.000065853269015 0.059647233218977 -9.967279758849198 0.000146368516178 -0.039360845959151 -10.123668996397992 -0.000034618876386 0.025923994816714 -10.024620645223445 0.000062424822925 0.117931788142055 -10.114820808948137 0.000194110795745 -0.211125819222951 -9.957202854103288 -0.000211136068808 -0.06460655112181 -9.796130342079211 -0.000091908493965 0.177986941857842 -10.032314050591161 0.000171490044964 0.001551680895385 -10.015409500596006 0.000052285603158 -0.061250606833411 -10.078729000080225 -0.000067310789377 0.183391663215432 -10.052723136281058 0.000182105402499 -0.12178568677696 -9.936424152208097 -0.000180680763001 -0.118389262828606 -10.062985416369715 -0.000182083319669 0.052785063101112 -10.264272072946966 0.00006449253186 -0.01469103649643 -10.042285343451136 -0.000148344093785 0.017950864300178 -10.179112108830425 0.000024286942431 -0.109666490125529 -10.045918386406539 -0.000142867424136 -0.019569281880838 -9.893747069297657 -0.000013599746223 0.066963912203095 -9.90012996259226 -0.000039526509815 -0.032015529622934 -10.096212110594214 -0.000008168319716 -0.016987310552684 -10.086506773836158 -0.000145246278958 0.008817529385488 -9.963013124755271 0.0000183003236 -0.045611470292412 -9.959211098992784 -0.000056326572437 -0.161431987271824 -10.088374038665068 -0.000578574395418 -0.240840640320925 -9.828236172821581 -0.00079774924622 -0.057792226525688 -10.022144870487116 -0.006598999699845 -0.068088317497828 -10.037665989233354 -0.006653063680645 0.099479445807062 -9.963480008093176 -0.029459372913166 -0.108019461878679 -9.988328691881394 -0.029528628325041 -0.23281868314505 -10.099919712430264 -0.000295325408972 0.034558955678804 -9.889755650008908 -0.000043506924355 0.029267035653599 -10.138654827624283 -0.000047613176006 0.104279365843208 -9.939901344290535 0.000020638897677 -0.050586796292083 -10.230406662522336 -0.000119004612362 -0.019567400058883 -9.942359044115143 -0.000089816448901 0.000267872020156 -10.024076727003269 -0.000107253401173 -0.087655728992398 -10.05848183541562 -0.000118608270898 0.074152481529025 -10.135274631580772 0.000089325826994 0.131290241626274 -10.084153988664138 0.00017472423328 0.067471175163761 -10.039638059275021 0.000014960574813 0.057815188629752 -9.816010181248041 0.000069758454944 0.044404412209394 -9.987978688033269 -0.000003548169352 0.195690645719472 -10.090161696413274 0.000264949088343 -0.020528020365811 -9.93858505549967 -0.000065074772386 -0.046597371446731 -10.027174851680426 0.000049277813384 0.091649093486579 -10.059912312029285 0.000072254540137 -0.080890026744511 -9.94221849015757 -0.00003812069739 0.033272212972662 -9.936163154554805 -0.000006791183318 -0.108764099700885 -9.95319603965013 0.000079962706623 0.038321963308899 -9.920227022107918 0.000028489840065 -0.172831457944222 -9.964331326989058 -0.000093697647771 -0.031906618844676 -9.967448768577897 -0.000047594317047 -0.025440261565346 -10.038793997941992 0.000333884559948 -0.01411648328814 -9.888700339635365 0.000561080972893 0.229077571024834 -10.196863602947523 0.006869672117562 -0.005377186013895 -9.939583470788438 0.006642542998251 -0.016702400862102 -10.065720256861956 0.029471852119946 -0.100131973857898 -10.050528173454017 0.029449836980197 0.070509518995473 -9.980364348475529 0.000090606533536 -0.154359905929274 -9.866687034064615 -0.00019997078175 0.033738475877966 -10.225728319307777 0.000063526673752 0.001860238649811 -9.807728115482817 0.000028376868149 0.093195314313103 -9.855596968422081 0.000075024362383 0.004935636838238 -9.903850181999298 0.000034747161196 -0.113685301161903 -9.923801202723473 -0.000237973824583 0.175679927547162 -10.027420015631836 0.00009360952547 0.050413952773972 -10.055485963306918 -0.000006367397618 -0.123985511980707 -10.115052624521571 -0.000154951399288 0.048119748933541 -10.109464693776733 -0.000068753406024 -0.106532565547741 -10.025780345382335 -0.000096853247377 -0.12864075752749 -10.051060862603618 -0.00012812000528 0.033354300445998 -10.045808925702921 0.000099466819396 0.166785157941048 -9.980231236479145 0.000214987263279 0.015427894770912 -10.160509859668158 0.000074961469402 -0.151355067575591 -9.977629745937207 -0.000135276650056 -0.146680653981129 -10.047023706894457 -0.000147059631107 0.170305685619657 -10.017467719575047 0.000076475117909 -0.08925971599179 -10.009566228217192 -0.000060555082904 0.080151611599712 -10.132558050217725 -0.00001693543727 -0.090149572157429 -10.067657282539191 -0.000286043566589 -0.221342755116446 -10.174931617302175 -0.000479578233577 -0.16871013868703 -9.935047204717323 -0.000710654765323 0.106085134559598 -9.993407509680331 -0.000435951176127 0.009728911343376 -10.006671998142545 -0.0067837705436 0.119373458601913 -10.032812200574712 -0.006575025692092 0.017744984676306 -10.194691494605307 0.000069018135545 0.076211097641668 -9.874000450342796 0.000072748316257 0.111377315543648 -9.993054337554744 0.000044457785678 0.018526547353504 -10.083994253688656 0.000097497395307 0.03351338601915 -10.012440402398742 0.000037621048525 0.009175634653944 -10.054528720290854 0.000012313868005 0.148481665834141 -9.991933583173649 0.000146153194019 0.076443773772918 -10.014924600602065 0.000089959833393 0.03591544720891 -10.044372378136499 -0.000003218059226 0.076418892996669 -10.095011055500976 -0.000032892766471 0.133154347934593 -10.014031584278571 0.000179337870242 0.011486264425781 -9.860232992444079 0.000062807687698 0.048250113687743 -10.170746212844961 0.000055628289525 -0.061176092489481 -10.069168493360264 -0.000116772581909 0.146339514368938 -9.928759088195282 0.000262215256022 -0.106193393412013 -9.935840990772792 -0.000110923572064 0.09436078290292 -9.904452255684676 0.000079731080561 -0.136105481799547 -9.901364730364408 -0.000133689193429 0.03658549