<?xml version="1.0" encoding="UTF-8" standalone="no" ?>
<VTKFile byte_order="LittleEndian" type="UnstructuredGrid" version="0.1">

  <UnstructuredGrid>
    <Piece NumberOfCells="0" NumberOfPoints="801">
      <PointData>
        <DataArray Name="mass" NumberOfComponents="1" format="ascii" type="Float32">1 1 1 1 1 1 1 1 1 1 1 1 1 1 1 1 1 1 1 1 1 1 1 1 1 1 1 1 1 1 1 1 1 1 1 1 1 1 1 1 1 1 1 1 1 1 1 1 1 1 1 1 1 1 1 1 1 1 1 1 1 1 1 1 1 1 1 1 1 1 1 1 1 1 1 1 1 1 1 1 1 1 1 1 1 1 1 1 1 1 1 1 1 1 1 1 1 1 1 1 1 1 1 1 1 1 1 1 1 1 1 1 1 1 1 1 1 1 1 1 1 1 1 1 1 1 1 1 1 1 1 1 1 1 1 1 1 1 1 1 1 1 1 1 1 1 1 1 1 1 1 1 1 1 1 1 1 1 1 1 1 1 1 1 1 1 1 1 1 1 1 1 1 1 1 1 1 1 1 1 1 1 1 1 1 1 1 1 1 1 1 1 1 1 1 1 1 1 1 1 1 1 1 1 1 1 1 1 1 1 1 1 1 1 1 1 1 1 1 1 1 1 1 1 1 1 1 1 1 1 1 1 1 1 1 1 1 1 1 1 1 1 1 1 1 1 1 1 1 1 1 1 1 1 1 1 1 1 1 1 1 1 1 1 1 1 1 1 1 1 1 1 1 1 1 1 1 1 1 1 1 1 1 1 1 1 1 1 1 1 1 1 1 1 1 1 1 1 1 1 1 1 1 1 1 1 1 1 1 1 1 1 1 1 1 1 1 1 1 1 1 1 1 1 1 1 1 1 1 1 1 1 1 1 1 1 1 1 1 1 1 1 1 1 1 1 1 1 1 1 1 1 1 1 1 1 1 1 1 1 1 1 1 1 1 1 1 1 1 1 1 1 1 1 1 1 1 1 1 1 1 1 1 1 1 1 1 1 1 1 1 1 1 1 1 1 1 1 1 1 1 1 1 1 1 1 1 1 1 1 1 1 1 1 1 1 1 1 1 1 1 1 1 1 1 1 1 1 1 1 1 1 1 1 1 1 1 1 1 1 1 1 1 1 1 1 1 1 1 1 1 1 1 1 1 1 1 1 1 1 1 1 1 1 1 1 1 1 1 1 1 1 1 1 1 1 1 1 1 1 1 1 1 1 1 1 1 1 1 1 1 1 1 1 1 1 1 1 1 1 1 1 1 1 1 1 1 1 1 1 1 1 1 1 1 1 1 1 1 1 1 1 1 1 1 1 1 1 1 1 1 1 1 1 1 1 1 1 1 1 1 1 1 1 1 1 1 1 1 1 1 1 1 1 1 1 1 1 1 1 1 1 1 1 1 1 1 1 1 1 1 1 1 1 1 1 1 1 1 1 1 1 1 1 1 1 1 1 1 1 1 1 1 1 1 1 1 1 1 1 1 1 1 1 1 1 1 1 1 1 1 1 1 1 1 1 1 1 1 1 1 1 1 1 1 1 1 1 1 1 1 1 1 1 1 1 1 1 1 1 1 1 1 1 1 1 1 1 1 1 1 1 1 1 1 1 1 1 1 1 1 1 1 1 1 1 1 1 1 1 1 1 1 1 1 1 1 1 1 1 1 1 1 1 1 1 1 1 1 1 1 1 1 1 1 1 1 1 1 1 1 1 1 1 1 1 1 1 1 1 1 1 1 1 1 1 1 1 1 1 1 1 1 1 1 1 1 1 1 1 1 1 1 1 1 1 1 1 1 1 1 1 1 1 1 1 1 1 1 1 1 1 1 1 1 1 1 1 1 1 1 1 1 1 1 1 1 1 1 1 1 1 1 1 1 1 1 1 1 1 1 1 1 1 1 1 1 1 1 1 1 1 1 1 1 1 1 1 1 1 1</DataArray>
        <DataArray Name="velocity" NumberOfComponents="3" format="ascii" type="Float32">0.111230466078261 -10.034389277081209 0.000005026587567 0.060805971559244 -9.935970721658993 0.000001053185057 -0.071208806662074 -9.884107619380298 -0.000001411396598 -0.171896738857765 -9.95825020242123 -0.000003600402038 -0.040010604016111 -9.772024922780998 -0.000007250336921 -0.227179891607354 -9.977469852346548 -0.000011520771114 0.086634573595009 -9.861295730535398 0.000002358177689 -0.103260080647755 -9.969220265300097 -0.000004024205736 -0.035824404083159 -9.96984910447773 -0.000006067096547 -0.111384403654352 -10.032170807896396 -0.000004978707835 0.004739169563655 -9.875685987979315 -0.000008016223002 0.084486513132019 -10.152802792040143 0.000002900804548 0.222418688648041 -9.960648033537437 0.000006960416007 -0.000642731557137 -9.952772652487321 -0.000001228807322 -0.074986486346295 -9.901971013980361 -0.000004451551882 0.015422773368346 -9.84455462704457 -0.000000330409894 -0.022798284370189 -9.910627566583766 -0.000000892764347 -0.132845108903189 -10.090227705177249 -0.000006610181523 0.005416886610376 -10.086163441768134 -0.000002973685991 -0.106203685812967 -9.943837643874415 -0.000000220227836 0.078690566312518 -10.030467895176566 0.000002295013496 -0.006952961401954 -10.07165418106087 0.000003112579385 -0.170502061632512 -9.970870594743962 -0.000008688499193 -0.064102890184134 -9.866569499694599 -0.000001266028053 0.015562169315583 -9.791974618805872 0.000004413876066 0.003858495541263 -10.056226887764751 -0.000000126726678 -0.010554543255096 -9.926716128172441 -0.000004593397127 0.031924849203709 -9.985058548602266 0.00000185871361 -0.08911772608994 -9.900278580095906 -0.000007656980254 0.131717487967881 -10.141142094405168 0.000006124679857 0.050564129947806 -10.085895625386803 0.000002817245942 -0.015938656745787 -9.899004539700339 -0.000005128733639 0.097402961051462 -10.050007699063121 0.000004902284996 -0.024239755886619 -9.964799100987715 -0.000004606791542 -0.10740355169756 -9.86615331536478 -0.000004378401723 0.052893927017339 -9.989676612306949 0.000000512421594 0.039701500266864 -9.90943890604732 0.000005566104644 -0.011110107263074 -9.9221264190718 -0.000002606588192 -0.039479957507275 -9.877815220291058 0.000000531928311 0.026451973316709 -9.941068881704753 0.00000266780962 -0.009230564722029 -10.149641880688145 -0.000000636401547 0.19408270433913 -10.093506260880126 0.000009810848429 0.079944298507658 -10.146355282496391 -0.000000178348916 0.101150212580887 -10.068107453437186 -0.00000046210129 -0.02900819445985 -10.150029594534024 -0.000002685783374 -0.083409235997402 -10.059608210003075 -0.000002017627479 0.141751548332334 -10.209595806970803 0.000003963609627 -0.002820732819819 -9.838794824442603 0.000004235296744 0.153812575414579 -10.097475652292438 0.000007484928976 0.133887220740517 -10.070310577158393 0.000008423561388 -0.076360428320082 -10.099239684046276 -0.000000968132885 0.04939499305373 -10.149276453255656 0.000000684255835 -0.070395110209852 -9.953079643767532 -0.000005588861847 -0.035057294946675 -9.972636549022376 0.000000902041008 -0.069384048997894 -9.949463614035006 -0.000002881396808 -0.066207689852845 -9.996734487532764 -0.000001671484427 -0.067229391800295 -10.053993943568605 -0.000004736211029 0.083395617217877 -9.934721370010086 0.000005611374495 0.007579611259256 -9.978772984130233 -0.000001466164117 0.068769914496164 -9.870658266295907 0.000005718217989 0.003931925385558 -10.085964537927918 -0.000004241838265 -0.015900773787363 -9.864386817114704 -0.000006127467753 0.043826164034895 -9.847489640240212 -0.000000755264182 0.035921149866984 -10.122008938404644 0.000001587712985 -0.111955340622357 -10.03594396187556 -0.000003881074044 -0.205444886138944 -9.923668114960231 -0.000004579209367 0.223066250425486 -10.132953904267398 0.000011697065534 0.02976184356104 -10.063406262880653 0.000004917374092 0.019275649715361 -9.839224591683461 -0.000001726834697 0.020385457975829 -9.900148887430118 0.000003343245223 0.135388537397166 -9.929563503800388 0.00000920187188 0.006972255435851 -9.993749254022012 0.000002327738685 0.209474679306703 -10.003467685853725 0.000012339216968 -0.034890695213033 -9.965846351800412 -0.000001010572106 0.074668213947687 -10.125585234885346 0.000000894165763 0.061607241058438 -10.128771522191407 0.00000297749545 0.115385158121959 -10.105264696208355 0.000005934905697 -0.072203274564817 -10.113155599433906 -0.000004820429431 -0.064444992633093 -9.979915791919423 -0.000003318126608 -0.119290427584271 -9.934881786384988 -0.000006146804316 0.00109513672477 -9.951713915913295 -0.000001354251955 -0.175050961148606 -9.963177144602342 -0.000009531603 0.033816748731453 -10.059552208996489 -0.000002132700044 -0.075463385590584 -9.755326508733969 -0.000000977979746 0.066532338554159 -10.007305221567272 0.000004360768541 -0.043702105849153 -9.907171601383091 -0.000001567832731 -0.16894676426363 -9.892809737971284 -0.000007138020775 0.062339525495703 -10.049909228379027 0.000002601975169 0.203247635578028 -10.019585639597 0.000011899082648 -0.017853156017488 -10.193919334516966 0.000001930672556 0.057712805555374 -10.084890972039656 0.000006007210297 0.011612237724858 -10.047742731499183 0.000001370467404 -0.074042160781157 -9.827554879830307 -0.000004022520774 0.141400237486087 -9.88820757590913 0.000007182643762 -0.052008360432677 -10.107141857071712 -0.000007854977473 0.136182956840381 -9.841452428628076 0.000007875302661 0.119354678675684 -10.088725134362008 0.00000253152325 0.064952627724181 -10.080336731673087 -0.000000141184123 0.053104385182457 -9.976816847534153 0.000001561761309 0.079510056025095 -10.125900806643179 0.000003993873337 0.006827823251658 -10.086748016652143 -0.000003939612569 -0.035888241853322 -9.943608469041198 -0.000005449783037 0.02792227109859 -10.060820434095403 0.000000910572506 -0.082578344763024 -10.029405339103292 -0.00000804434944 0.151491786507195 -9.816163907837566 0.000004644436675 0.097507268547158 -10.12358630158716 0.000003458658701 0.095669123691285 -10.073251885560653 0.000004990496394 -0.056581762066575 -10.103009795584818 -0.000002379229604 0.098360274311291 -10.050569655741114 0.000004290496367 -0.131751099807953 -10.026838220656012 -0.00000688490674 0.102556222250152 -9.922965250124884 0.000004275545225 -0.073976141614636 -9.963798538248124 -0.00000368847847 -0.056138023889336 -9.867554315063428 0.000000491130594 0.039896710185193 -10.03258755692193 -0.000000842536297 0.142200081942172 -9.976540008709769 0.000012160075731 -0.028179918674254 -9.943811535752985 0.000000945058549 -0.006677530640718 -9.726112345837203 0.000003090727415 -0.075805480752328 -10.050635099271167 -0.000003173069548 0.112343530623179 -10.00241853125857 0.000005270780898 -0.012331370449838 -9.881597917052835 -0.000000559056025 -0.003597897273643 -10.187891903727859 -0.000001903369387 -0.095579402982236 -9.943621047082548 -0.000005992925703 0.042470567596745 -10.071336230233676 -0.000001537627567 0.250416191062239 -10.01446413048582 0.000006863053832 0.076180641256113 -9.949625082011254 0.000000757762059 -0.060893121904709 -10.052541290700381 -0.000004119001361 -0.000412568323724 -10.105224207086099 -0.000002636452024 -0.094090638201486 -10.036272868762476 -0.000002549325675 -0.01992885561099 -9.950968983635343 -0.000002628573243 0.076499699275641 -9.977302880256804 0.00000287168445 0.040140247289708 -9.962011615958128 0.000001919275484 -0.005006468511181 -10.21031261171056 0.000000840357682 -0.108754105328002 -9.836697867793042 -0.000012568106141 0.065683928142685 -10.145467471322894 0.000005367388869 -0.078792728295488 -9.970401699928761 -0.000010474402739 -0.089693825735901 -10.139110292599538 -0.000001736403189 -0.026715159054368 -10.064770291915989 -0.000004519579757 -0.011741952937287 -9.929896949781766 -0.000002090365128 0.056053471520446 -10.157240637372489 0.000000515953649 0.072638305161092 -9.880306470344202 0.000007701157453 -0.00450248871054 -10.122750632710986 -0.000001074077286 0.088195837149217 -9.971147894898177 0.000008885944099 0.008856358260139 -10.146007720973094 -0.000002021880366 0.159229294979231 -10.203943259368032 0.000011973730872 0.11538498081149 -10.036924366417272 0.000004072137711 -0.114609178344872 -10.07798587072557 -0.000003063329437 0.13515898697599 -9.918438164106972 0.000004259740936 0.069983380017272 -9.932342669795505 0.000004711366652 -0.034618495101466 -10.064509974007482 -0.000001005433558 0.067919364508229 -9.959082209958595 0.000004297705089 -0.061954377920591 -10.006906268362959 -0.000006339622441 -0.146877025615548 -10.014468011276719 -0.000001985386752 -0.081670918747511 -10.022578138029704 -0.00000212694339 -0.129385529832325 -9.901415251539765 -0.000003148293143 0.025435577663433 -10.026400068477402 0.000004299528656 -0.022393180951873 -9.851461395723192 -0.0000034724324 0.183184652866212 -10.054578358593028 0.000007546522206 -0.096397337939853 -9.977353260318752 -0.000008290360318 0.249579091515055 -9.905207977950964 0.000010210488245 0.118545701862943 -10.172088209946823 0.000001887092627 -0.033508271851892 -9.933443406637657 -0.000005352681838 -0.009087467177516 -10.127998696431039 -0.000001601658488 0.23766688337662 -9.944225408356653 0.000010460269527 0.169235289518741 -9.863428671506915 0.000007116641079 -0.051053866386271 -9.936857804508548 -0.000006305364592 -0.010260985257001 -10.153941661340443 0.000003414638436 0.08483649754035 -10.054144718636506 0.000002590633448 -0.032553703596461 -9.9139760455285 -0.000002955344976 -0.052680601771341 -9.893608288753509 -0.000010510266565 0.009123756279957 -10.026439536338723 0.000000807572289 -0.072401375816723 -9.917034231303276 -0.000010199009513 0.040413221782645 -9.892287232919646 0.000004932587882 -0.070757791992451 -10.10271260047635 -0.000006072079787 -0.12423661357952 -9.953691183092431 -0.000007504496853 -0.072234191233986 -9.967805138681673 -0.000002808910097 0.091436665165883 -9.928997727192371 0.000003053685463 -0.128881137588648 -10.042474422622844 -0.000005614673925 -0.182326074198017 -10.065212312398078 -0.000006532994265 -0.134901963086912 -10.057298468855143 -0.000011789251427 0.011454500034407 -10.120366338724434 0.000001178714101 0.003432895256929 -10.030290735625979 -0.00001615426763 -0.148906550257508 -10.146178205370289 -0.00001957585176 -0.088592028092622 -9.893373162456278 -0.000037270915945 -0.12822172522362 -9.91872216019518 -0.000044778661491 0.010074848270357 -9.922630965355124 -0.00005619645721 0.058614772992188 -9.898388691084499 -0.000057846053621 0.112786742665382 -10.106917860686082 0.000004828619141 0.01160386865187 -9.879297145558931 0.000004039157588 0.127223517821217 -9.846899910725854 0.000006558686362 0.046367280140504 -10.248266460034067 0.000001110763323 -0.086535184630396 -9.862666037874707 -0.000006553748244 0.102770963742743 -9.939656609701006 0.000005236245361 -0.042265585182976 -9.981924249387255 -0.000002623413019 -0.118607387972871 -9.954912967946402 -0.000006087150763 0.175732311087282 -9.940496992053131 0.000012510643803 -0.088113178034712 -10.107744935435667 -0.000005879983045 0.039762333147173 -9.908522383997335 0.00000307810127 -0.10430649630307 -10.051977766433408 -0.00000335432645 0.035026122815355 -9.920714075434438 0.000000734278625 0.108210491405366 -10.131707867814301 0.000004267223523 0.012703018857539 -10.010266458150173 -0.000000624546165 -0.122838769659221 -9.998748200897657 -0.000009401659828 0.095541044270494 -9.949040363962729 0.000004228860403 -0.079970777468113 -9.843940038647609 -0.000004337391273 0.107898855161562 -9.986081832553865 0.000006543218839 0.010528633737878 -9.980711120179148 -0.000001224266597 0.008690605467425 -9.926833475957192 0.000000005464117 -0.031716039226214 -9.70224046877504 0.000002141557226 0.12433994652206 -9.962575741302247 0.000004896605115 0.046281531711568 -10.018394005200108 0.000008608918855 0.099581011305873 -9.976220870501463 0.000009664873926 0.068469911796154 -9.871406348642285 0.000015945166245 0.063219757980746 -9.932319626558911 0.000015574354925 -0.14836511599671 -9.935998925899245 0.000032035512149 -0.011135300402007 -10.124860744715379 0.000034907783752 0.03152853670792 -9.96500179097446 0.000061055895479 0.082760475902526 -9.959743814683559 0.000061144725271 -0.138135687775108 -9.823429263048673 -0.000009631428084 0.113563801907841 -9.82947538649973 -0.000001117556988 0.012824157326238 -10.116695787808352 0.000003211604355 0.007755679981471 -10.045708426208041 -0.000005802855574 0.189775744259933 -9.982943743470511 0.000005436790125 0.127406009930271 -9.994305195518045 0.000004299650956 -0.100952703876131 -10.002668752243871 -0.000009367263129 0.001458355334794 -10.063751264139073 -0.000005104330399 0.118891231694763 -10.043589199669489 0.00000225977267 0.209742760896323 -10.072931059776527 0.000011048698439 -0.108299774819769 -10.026361736081766 -0.000006014580977 -0.147490898437955 -10.054418149629019 -0.000008787181756 0.03047499435129 -9.870790789379537 0.000001771698037 0.214411311106992 -10.137911865383414 0.000006772321487 -0.000851335152061 -9.981379294503281 -0.000001045855521 0.17038236811555 -9.882431199037581 0.000007156402122 -0.068575071065044 -10.069192872785493 -0.00000285751453 0.020437513437509 -9.933491654959003 0.000002058211198 0.168904709897287 -10.026363898019488 0.000008985136143 -0.020124952082128 -9.88522466059411 0.000002200503364 0.03343721667344 -9.977671648096129 0.000001578897322 -0.202613625559613 -9.955273726140902 -0.000011789770098 -0.150988074812835 -10.012038441672766 -0.00000422264201 0.06397910439674 -10.004794146883777 -0.000007243644108 -0.132922475911795 -10.017584014920129 -0.00001484876182 0.073388997338524 -9.930573386764545 -0.000088450945921 0.04123460421581 -10.024325256447455 -0.000091678879754 -0.169405251073107 -10.100091214782228 -0.001309519054128 0.199273607868767 -9.818091896794234 -0.001295531229527 0.041114603645004 -10.122792057020039 -0.005899927291797 -0.040859913186408 -10.217767505018864 -0.005903349055934 0.023879181499534 -9.935481761361315 0.000000441663785 -0.130506470981013 -9.951893143412713 -0.000004440113215 -0.050575038970101 -10.120157253088315 -0.000005106679971 0.173948905466819 -9.890053397448266 0.000007676831691 0.1675453746797 -9.908840916415802 0.000011729817034 -0.067429412145505 -9.990564184963175 -0.000006283465159 0.038228578733297 -10.154429778369087 0.000004413317204 0.051949422467023 -9.861433661977108 0.000003168823611 -0.126838484951482 -10.020227773280915 -0.000008489050302 -0.006024383271822 -9.855190232103865 0.000004324727169 0.009644971673477 -9.967753048094689 -0.000000509149255 -0.080024825404006 -10.047934040917832 -0.000003844542861 0.086639280720897 -10.030416274636302 0.000002403855152 0.04230600792042 -9.973810951964522 0.000000277315101 -0.018768459743271 -10.17587879849253 -0.000002614683029 0.096479227723874 -9.96755368633703 0.000005491730813 0.019631102833997 -9.962054855802407 -0.000000397755902 -0.084742448477882 -10.058378977086941 -0.000001117386121 -0.050403515207996 -10.044920715349969 -0.000006184545789 0.043799153439764 -10.112219187973164 0.000002492627149 -0.04531289539664 -10.033087792390312 -0.000000824439112 -0.054083636564779 -9.789736857872438 0.000002668213945 0.017655512732264 -10.066406539950828 -0.000000786596709 -0.248710772435056 -10.008260633531144 -0.000000809991117 -0.053656312125575 -10.17488426761285 0.000006975429219 -0.018090909170272 -9.971041910559181 0.000093988643305 0.028406298344146 -10.131962786934562 0.000093511017793 -0.047708567583528 -10.009740902569551 0.001303551252334 0.073411819788505 -9.939318666179892 0.001309392542145 -0.047964028544216 -10.001172667779709 0.005899614422594 -0.103336173227207 -9.937004389341421 0.005897836713885 0.121062601516825 -10.104338850053907 0.0000083485226 0.080229107576821 -9.969821322908404 0.000002787449273 -0.014441768071884 -10.040938928434123 0.000000624137917 0.061012029360552 -9.930688973345902 0.000002455150518 0.116005977081878 -9.893990489095019 0.000005994132185 0.061737573288204 -10.028528397664971 0.000002493634178 0.103082435082455 -10.082375545492061 0.000005887333424 0.051049755795015 -10.051299091509897 0.000000585875801 0.012169480483219 -10.059659269567414 0.000000615355125 -0.0393610973254 -10.056025807210546 -0.000008168858056 0.01271719742785 -10.063100493516218 -0.00000069019547 -0.021340855038726 -10.167450860024372 -0.000001719942832 0.031272037563899 -10.118778946299438 -0.000001317199687 0.254027172630933 -10.071076190724801 0.000009118062444 0.081324698954818 -9.748117167622 0.000002230183497 0.07410465148852 -10.088721342328045 -0.000000683541962 -0.136181063323727 -9.922817174315627 -0.000006224876102 0.002758341756333 -10.034975377856467 -0.000004522352711 0.056094151660552 -10.019841270247282 -0.000001911067552 -0.144782631946437 -9.988841732978075 -0.00000771746289 -0.083525745622652 -10.162567938285209 -0.000009426344405 0.136735370606143 -9.889893869664469 0.000009271861935 -0.041077908503698 -10.16728051177831 -0.000003869466448 0.123776529285218 -10.101678132966342 -0.000004254549048 -0.075486791467186 -9.931526514092621 -0.000013199558657 -0.112607961389538 -9.915833734678895 -0.000103569360768 0.107061299044182 -9.968165108700186 -0.000090934251442 -0.124301797729649 -9.88691491617722 -0.001314494310015 0.007908273724726 -9.877887168812805 -0.001308952382905 -0.08581838167608 -10.083637668720492 -0.000002977024677 -0.079407318440725 -9.997298739715674 -0.000003525192439 0.08805862267042 -9.974981771935965 0.000003818055654 0.012712681483947 -9.868473986896616 -0.000005352446537 -0.138758273630081 -10.12432125417525 -0.000011535050225 -0.019868669043203 -10.000433881348229 -0.000003852484127 -0.102868952056116 -9.896802066223868 -0.00000712317529 0.133467938459362 -9.996920309624336 0.000004706427599 -0.006286338632819 -10.08140722756041 0.000004616397663 -0.138346048823294 -10.00726569633138 -0.000003786343906 -0.026945650862247 -10.016576159929336 -0.00000151995485 0.152131590086755 -9.919936523796995 0.000010938965553 0.012378920575699 -10.011154333775316 -0.000001365549556 -0.015127672118626 -9.83833748247201 -0.000003393324465 0.052657220947668 -9.841802757221553 0.000005115566676 0.01569132985337 -9.972787734018647 0.000000181653028 -0.015298175846294 -9.989067788091905 -0.000001074327782 -0.07980670823084 -10.092318413119441 -0.000002754726148 0.094840411504203 -10.085453168445758 0.000004804384965 0.021765742713523 -10.033798084814876 0.000005962831241 -0.106050441786067 -9.871457281254576 -0.000001847760525 -0.150252497247174 -10.226504540931886 0.000000384293723 0.114807395755596 -10.130956551972638 0.000009291783961 0.027022382811162 -10.099539640167311 0.000016472665839 -0.070965467910315 -10.020708584317408 0.00000959253832 -0.0879634609219 -9.962428002804861 0.000094821448299 0.039212939974282 -10.135875399246951 0.000099342793626 0.205617182652637 -9.967547691585317 0.001319195334225 -0.013910379381409 -9.961542423766591 0.001308202839604 0.031906740944755 -10.044981989184235 -0.000001015764856 -0.056221084105506 -9.998278334975442 -0.000005071790082 -0.046272740586732 -10.132441748622773 -0.000003650508169 -0.016937564587235 -10.121414697896173 -0.00000268926724 -0.179547762584915 -10.061989494614103 -0.000012236174339 -0.106371562477578 -10.01096119283608 -0.000003850741168 0.10418340862092 -9.932740575888223 0.000004476182453 0.011006497228474 -10.131054226620005 -0.000002826436451 -0.167581540887664 -9.856339707819364 -0.000010161233128 0.096431868571856 -9.860641691431606 0.000005721854954 0.098244551228853 -10.232461074948224 0.000001292365725 0.12458619230613 -9.969985884161103 0.000008638252931 0.124491434080754 -10.054241580795026 0.000006025146352 -0.023601307768276 -10.080307413491255 -0.000005998427041 0.121989873239804 -10.044595219186144 0.000005072481347 0.002581883319716 -9.995466067601745 -0.000003731072672 0.028161046217369 -9.973200470742087 0.000006293635685 0.139435846122642 -9.912030609203757 0.000006767241193 0.030172956757971 -9.767150477148707 0.000000136499274 0.008279114563944 -9.728546531936697 0.000002219487249 0.14423688528601 -9.943708858428906 0.000007538866223 -0.065172535625659 -9.940463498941583 -0.000010520083822 0.070341551225573 -9.951955777410429 0.000001487666704 -0.102578267730953 -9.946155486258069 -0.000020321856949 -0.031588156295519 -10.066391614328426 -0.000012510269988 -0.015479635129167 -10.176335492178724 -0.000045600285189 -0.090581337345952 -10.06265159173541 -0.000053110821009 0.015284866969165 -9.960404537573503 -0.000090908883904 -0.153199016062227 -9.992350395688453 -0.000096956578392 -0.076013263400551 -10.04348542264669 0.00000276633177 0.083747728669213 -9.801806631013273 0.000005501997052 0.047495546544275 -10.033942484033302 0.000002008769458 0.146717492186362 -9.890834263351307 0.00000527131759 0.043845282241332 -9.958762251857429 0.00000558257366 0.134392801417862 -9.825377799453769 0.000006982705713 0.072385146944592 -9.924778538177113 0.000005692381217 -0.020550252312238 -10.040291762171432 -0.000002106520162 -0.109332126899289 -10.047699179168951 -0.000006781986771 -0.0975562541762 -10.207479423183738 -0.000004953423915 0.027800569816309 -10.075240795591824 0.000000098427411 -0.038371361868212 -9.918848483716864 -0.000006697567494 0.023344262814314 -10.085914506404265 0.000000181889889 0.075290698249918 -9.938624480173738 -0.000000336829437 -0.126620086922996 -10.166512447775952 -0.000006886797982 -0.069880513306727 -10.150326194766214 -0.000001388865666 0.015629101260382 -10.067723603905282 -0.000001468400781 0.089345361099807 -10.015259514029122 0.00000906020527 0.076211787432374 -9.965177045826128 0.000001979375968 -0.247821351387675 -10.178406899844777 -0.000007196425588 -0.073294301326315 -10.097210720376649 -0.000001360582916 -0.152423139768032 -9.954136681683908 0.00000348462813 -0.038262334023148 -10.071985418806763 0.000001359300893 0.165896200716712 -10.013339235009244 0.000023391632199 -0.006378601250403 -10.1388382878773 0.000016983401557 -0.058181233346562 -10.089933443416864 0.000041896401337 -0.060828135337444 -9.909825708068876 0.000046058842612 0.107199226853377 -9.870542549370869 0.000093682203643 0.043568834368274 -9.794063402817125 0.000096771808058 -0.013321159755724 -9.872117715319636 -0.000002684463407 0.059555271753565 -9.967812020284134 0.000005798366175 -0.039341956104579 -10.127140786720828 -0.000001430595719 0.02588407522799 -10.026368479775313 0.000002444121638 0.117797076912282 -10.119302780932214 0.000007723686449 -0.210995805210246 -9.955189383250232 -0.000008508307837 -0.064534679581304 -9.78848310538821 -0.000003743372383 0.177868851396608 -10.032700940207777 0.000006781616512 0.001513387519352 -10.018047061387241 0.000002014673116 -0.061208932336648 -10.08147973678393 -0.00000280149536 0.183273907172699 -10.052971970988866 0.000007173771428 -0.121659389132627 -9.929642218743185 -0.000007389220001 -0.118271052723206 -10.063431698158379 -0.000007441210596 0.052737067509991 -10.270159079772011 0.000002299404557 -0.014590036931288 -10.041915973600535 -0.000006214829547 0.017933850249515 -10.181846761575553 0.000000445928836 -0.109567454267996 -10.048118459642723 -0.00000623688646 -0.019563512749013 -9.886857188694934 -0.000001646207761 0.066998475781089 -9.895467915642616 -0.000002687993388 -0.032006920731114 -10.101043411148158 -0.000003172892786 -0.01688535102862 -10.090944140472031 -0.000008649377491 0.008820842550644 -9.95906892316923 -0.000010017679963 -0.045577361416994 -9.959472445848807 -0.000012998432254 -0.160979095180602 -10.090015802128898 -0.000102006154477 -0.240252862794092 -9.824617625684935 -0.000110781217609 -0.052517722953404 -10.011591708371956 -0.00131352776779 -0.062770569665812 -10.051704399146807 -0.001315702782924 0.123060971889865 -9.94704861474828 -0.005903894473777 -0.084392506590516 -10.003221468393736 -0.005906667782353 -0.232633576972218 -10.102289691289474 -0.000011763448725 0.034595963573051 -9.886150009291852 -0.000001687784811 0.029304235207273 -10.137833165216342 -0.000001856880688 0.104273762321374 -9.94062923802209 0.000000874770431 -0.050510361377235 -10.23468614986337 -0.000004700763116 -0.019514917666017 -9.940763026976335 -0.000003529741333 0.000340331560587 -10.019516470249307 -0.000004223906776 -0.087586923628549 -10.059735775390243 -0.000004656079041 0.074094991581427 -10.138228496384659 0.000003644635846 0.131174906087783 -10.088227325000171 0.00000709320441 0.067462803591945 -10.038987347856786 0.000000713876282 0.057777392961251 -9.808325751951715 0.000002954767297 0.044409666731556 -9.987962868249207 0.000000027215518 0.195514064644777 -10.095031755238008 0.00001088725477 -0.020482976853785 -9.936161953264763 -0.000002315001195 -0.046639333434621 -10.027389827764718 0.000002499384014 0.091598169288104 -10.063427793945621 0.000003414357193 -0.080862469192686 -9.940900586606766 -0.000000431689596 0.033275556156702 -9.934632954054639 0.00000083149962 -0.108825702671615 -9.953155295750287 0.000006038323993 0.038300404003389 -9.919363273729164 0.000003982890038 -0.172782791624752 -9.963293107379462 0.000007006775718 -0.031881674149133 -9.969475512647348 0.000008853019993 -0.02571953990165 -10.0364196395935 0.000092225572133 -0.014561220664828 -9.887988851201671 0.000101311906301 0.22362875458705 -10.190571511402554 0.001324350419867 -0.010686208031459 -9.949146938508418 0.001315267041271 -0.040289347148674 -10.048249158349458 0.005904398620861 -0.123705757470921 -10.067720040961364 0.005903520067061 0.070449754430983 -9.978497176291565 0.000003548326725 -0.154230337556488 -9.865988127109164 -0.000008071364659 0.033696231006859 -10.23446246367747 0.000002463772967 0.001840345183078 -9.805550303405941 0.000001043021137 0.09315341507136 -9.849238886360654 0.000002893673639 0.004912797238966 -9.903489091297802 0.000001294221281 -0.113527882668109 -9.923063542018193 -0.000009636075938 0.175626940757365 -10.027901101088885 0.000003604599315 0.050413368481769 -10.056511295424713 -0.000000381798779 -0.123886710997564 -10.117516235459203 -0.000006383886948 0.048164652052643 -10.111002757693369 -0.000002938878734 -0.106468722618481 -10.024286762617344 -0.000004178506673 -0.128556408117892 -10.051245490949954 -0.000005431438816 0.033296441156959 -10.04443924579479 0.000003423794163 0.166646296806483 -9.979271088522772 0.000008063002993 0.015375405853115 -10.163684823635796 0.000001945780375 -0.151270491591264 -9.977088295231054 -0.000006468334873 -0.146584478597842 -10.045941501320488 -0.000008257225281 0.170265974322228 -10.016494433458412 0.000000686619031 -0.089214437114956 -10.008086112354203 -0.000008729294534 0.08016947990164 -10.133609732161876 -0.00000697709001 -0.089935560288618 -10.069961945800788 -0.000032647749588 -0.221001118328358 -10.1785404526922 -0.000040404272453 -0.168157414952832 -9.927611796714295 -0.000135736330261 0.106451824382994 -9.994781987756401 -0.000124729706142 0.015156156480379 -9.997186208347944 -0.00136399552246 0.124662322659083 -10.043910550164846 -0.00135564516613 0.017703895533242 -10.202046870021462 0.000002826262172 0.076167642024017 -9.866456592380619 0.000002988912029 0.111355963744287 -9.989826987180363 0.000001852417092 0.018453787983882 -10.087495100556154 0.00000399768646 0.033479983632046 -10.013059857550587 0.000001601678106 0.009163514477542 -10.054700372711528 0.000000598782216 0.148387834409909 -9.990887523893774 0.000005939222495 0.07638579826655 -10.013168505671652 0.000003727398309 0.035926521830753 -10.045611795044026 -0.000000001066128 0.076451200770308 -10.099405082142065 -0.000001121456595 0.133029788620132 -10.011349887721654 0.000007372393754 0.011434172196642 -9.853943590203912 0.000002821588492 0.0482074117429 -10.176435640619355 0.000002534165748 -0.06109697948279 -10.07407651620575 -0.000004141168478 0.146160993614226 -9.925601770812325 0.000011027911822 -0.106119408348018 -9.934464211845814 -0.000003383470461 0.094309015403449 -9.903473302782249 0.000004246800217 -0.136022322704383 -9.898035330023848 -0.000002963797536 0.03658426942784 -9.9537874